<?xml version="1.0" encoding="ISO-8859-1"?>
<modeling>
 <generator>
  <i name="program" type="string">vasp </i>
  <i name="version" type="string">6.4.3  </i>
  <i name="subversion" type="string">19Mar24 (build Jun 20 2024 15:56:09) complex                          parallel </i>
  <i name="platform" type="string">LinuxNV_CrayMPICH </i>
  <i name="date" type="string">2025 02 12 </i>
  <i name="time" type="string">10:46:58 </i>
 </generator>
 <incar>
  <i type="string" name="PREC">Accurate</i>
  <i type="int" name="IBRION">    -1</i>
  <i name="EDIFF">      0.00000010</i>
  <i type="int" name="NSW">     0</i>
  <i name="ENCUT">    900.00000000</i>
  <i type="logical" name="LREAL"> F  </i>
  <i type="int" name="ISMEAR">     0</i>
  <i name="SIGMA">      0.01000000</i>
  <i type="logical" name="LWAVE"> F  </i>
  <i type="logical" name="LCHARG"> F  </i>
  <i type="int" name="IVDW">    12</i>
 </incar>
 <primitive_cell>
  <structure name="primitive_cell" >
   <crystal>
    <varray name="basis" >
     <v>       0.97714702      -1.69246829       0.00000000 </v>
     <v>       0.97714702       1.69246829       0.00000000 </v>
     <v>       0.00000000       0.00000000       3.18770782 </v>
    </varray>
    <i name="volume">     10.54360085 </i>
    <varray name="rec_basis" >
     <v>       0.51169373      -0.29542651       0.00000000 </v>
     <v>       0.51169373       0.29542651      -0.00000000 </v>
     <v>      -0.00000000       0.00000000       0.31370504 </v>
    </varray>
   </crystal>
   <varray name="positions" >
    <v>       0.66666667       0.33333333       0.25000000 </v>
    <v>       0.33333333       0.66666667       0.75000000 </v>
   </varray>
  </structure>
  <varray name="primitive_index" >
   <v type="int" >        1 </v>
   <v type="int" >       16 </v>
  </varray>
 </primitive_cell>
 <kpoints>
  <generation param="Gamma">
   <v type="int" name="divisions">       6       21        4 </v>
   <v name="usershift">      0.00000000       0.00000000       0.00000000 </v>
   <v name="genvec1">      0.16666667       0.00000000       0.00000000 </v>
   <v name="genvec2">     -0.00000000       0.04761905       0.00000000 </v>
   <v name="genvec3">      0.00000000       0.00000000       0.25000000 </v>
   <v name="shift">      0.00000000       0.00000000       0.00000000 </v>
  </generation>
  <varray name="kpointlist" >
   <v>       0.00000000       0.00000000       0.00000000 </v>
   <v>       0.16666667       0.00000000       0.00000000 </v>
   <v>       0.33333333       0.00000000       0.00000000 </v>
   <v>       0.50000000       0.00000000       0.00000000 </v>
   <v>       0.00000000       0.04761905       0.00000000 </v>
   <v>       0.16666667       0.04761905       0.00000000 </v>
   <v>       0.33333333       0.04761905       0.00000000 </v>
   <v>       0.50000000       0.04761905       0.00000000 </v>
   <v>       0.00000000       0.09523810       0.00000000 </v>
   <v>       0.16666667       0.09523810       0.00000000 </v>
   <v>       0.33333333       0.09523810       0.00000000 </v>
   <v>       0.50000000       0.09523810       0.00000000 </v>
   <v>       0.00000000       0.14285714       0.00000000 </v>
   <v>       0.16666667       0.14285714       0.00000000 </v>
   <v>       0.33333333       0.14285714       0.00000000 </v>
   <v>       0.50000000       0.14285714       0.00000000 </v>
   <v>       0.00000000       0.19047619       0.00000000 </v>
   <v>       0.16666667       0.19047619       0.00000000 </v>
   <v>       0.33333333       0.19047619       0.00000000 </v>
   <v>       0.50000000       0.19047619       0.00000000 </v>
   <v>       0.00000000       0.23809524       0.00000000 </v>
   <v>       0.16666667       0.23809524       0.00000000 </v>
   <v>       0.33333333       0.23809524       0.00000000 </v>
   <v>       0.50000000       0.23809524       0.00000000 </v>
   <v>       0.00000000       0.28571429       0.00000000 </v>
   <v>       0.16666667       0.28571429       0.00000000 </v>
   <v>       0.33333333       0.28571429       0.00000000 </v>
   <v>       0.50000000       0.28571429       0.00000000 </v>
   <v>       0.00000000       0.33333333       0.00000000 </v>
   <v>       0.16666667       0.33333333       0.00000000 </v>
   <v>       0.33333333       0.33333333       0.00000000 </v>
   <v>       0.50000000       0.33333333       0.00000000 </v>
   <v>       0.00000000       0.38095238       0.00000000 </v>
   <v>       0.16666667       0.38095238       0.00000000 </v>
   <v>       0.33333333       0.38095238       0.00000000 </v>
   <v>       0.50000000       0.38095238       0.00000000 </v>
   <v>       0.00000000       0.42857143       0.00000000 </v>
   <v>       0.16666667       0.42857143       0.00000000 </v>
   <v>       0.33333333       0.42857143       0.00000000 </v>
   <v>       0.50000000       0.42857143       0.00000000 </v>
   <v>       0.00000000       0.47619048       0.00000000 </v>
   <v>       0.16666667       0.47619048       0.00000000 </v>
   <v>       0.33333333       0.47619048       0.00000000 </v>
   <v>       0.50000000       0.47619048       0.00000000 </v>
   <v>       0.00000000       0.00000000       0.25000000 </v>
   <v>       0.16666667       0.00000000       0.25000000 </v>
   <v>       0.33333333       0.00000000       0.25000000 </v>
   <v>       0.50000000       0.00000000       0.25000000 </v>
   <v>       0.00000000       0.04761905       0.25000000 </v>
   <v>       0.16666667       0.04761905       0.25000000 </v>
   <v>       0.33333333       0.04761905       0.25000000 </v>
   <v>       0.50000000       0.04761905       0.25000000 </v>
   <v>       0.00000000       0.09523810       0.25000000 </v>
   <v>       0.16666667       0.09523810       0.25000000 </v>
   <v>       0.33333333       0.09523810       0.25000000 </v>
   <v>       0.50000000       0.09523810       0.25000000 </v>
   <v>       0.00000000       0.14285714       0.25000000 </v>
   <v>       0.16666667       0.14285714       0.25000000 </v>
   <v>       0.33333333       0.14285714       0.25000000 </v>
   <v>       0.50000000       0.14285714       0.25000000 </v>
   <v>       0.00000000       0.19047619       0.25000000 </v>
   <v>       0.16666667       0.19047619       0.25000000 </v>
   <v>       0.33333333       0.19047619       0.25000000 </v>
   <v>       0.50000000       0.19047619       0.25000000 </v>
   <v>       0.00000000       0.23809524       0.25000000 </v>
   <v>       0.16666667       0.23809524       0.25000000 </v>
   <v>       0.33333333       0.23809524       0.25000000 </v>
   <v>       0.50000000       0.23809524       0.25000000 </v>
   <v>       0.00000000       0.28571429       0.25000000 </v>
   <v>       0.16666667       0.28571429       0.25000000 </v>
   <v>       0.33333333       0.28571429       0.25000000 </v>
   <v>       0.50000000       0.28571429       0.25000000 </v>
   <v>       0.00000000       0.33333333       0.25000000 </v>
   <v>       0.16666667       0.33333333       0.25000000 </v>
   <v>       0.33333333       0.33333333       0.25000000 </v>
   <v>       0.50000000       0.33333333       0.25000000 </v>
   <v>       0.00000000       0.38095238       0.25000000 </v>
   <v>       0.16666667       0.38095238       0.25000000 </v>
   <v>       0.33333333       0.38095238       0.25000000 </v>
   <v>       0.50000000       0.38095238       0.25000000 </v>
   <v>       0.00000000       0.42857143       0.25000000 </v>
   <v>       0.16666667       0.42857143       0.25000000 </v>
   <v>       0.33333333       0.42857143       0.25000000 </v>
   <v>       0.50000000       0.42857143       0.25000000 </v>
   <v>       0.00000000       0.47619048       0.25000000 </v>
   <v>       0.16666667       0.47619048       0.25000000 </v>
   <v>       0.33333333       0.47619048       0.25000000 </v>
   <v>       0.50000000       0.47619048       0.25000000 </v>
   <v>       0.00000000       0.00000000       0.50000000 </v>
   <v>       0.16666667       0.00000000       0.50000000 </v>
   <v>       0.33333333       0.00000000       0.50000000 </v>
   <v>       0.50000000       0.00000000       0.50000000 </v>
   <v>       0.00000000       0.04761905       0.50000000 </v>
   <v>       0.16666667       0.04761905       0.50000000 </v>
   <v>       0.33333333       0.04761905       0.50000000 </v>
   <v>       0.50000000       0.04761905       0.50000000 </v>
   <v>       0.00000000       0.09523810       0.50000000 </v>
   <v>       0.16666667       0.09523810       0.50000000 </v>
   <v>       0.33333333       0.09523810       0.50000000 </v>
   <v>       0.50000000       0.09523810       0.50000000 </v>
   <v>       0.00000000       0.14285714       0.50000000 </v>
   <v>       0.16666667       0.14285714       0.50000000 </v>
   <v>       0.33333333       0.14285714       0.50000000 </v>
   <v>       0.50000000       0.14285714       0.50000000 </v>
   <v>       0.00000000       0.19047619       0.50000000 </v>
   <v>       0.16666667       0.19047619       0.50000000 </v>
   <v>       0.33333333       0.19047619       0.50000000 </v>
   <v>       0.50000000       0.19047619       0.50000000 </v>
   <v>       0.00000000       0.23809524       0.50000000 </v>
   <v>       0.16666667       0.23809524       0.50000000 </v>
   <v>       0.33333333       0.23809524       0.50000000 </v>
   <v>       0.50000000       0.23809524       0.50000000 </v>
   <v>       0.00000000       0.28571429       0.50000000 </v>
   <v>       0.16666667       0.28571429       0.50000000 </v>
   <v>       0.33333333       0.28571429       0.50000000 </v>
   <v>       0.50000000       0.28571429       0.50000000 </v>
   <v>       0.00000000       0.33333333       0.50000000 </v>
   <v>       0.16666667       0.33333333       0.50000000 </v>
   <v>       0.33333333       0.33333333       0.50000000 </v>
   <v>       0.50000000       0.33333333       0.50000000 </v>
   <v>       0.00000000       0.38095238       0.50000000 </v>
   <v>       0.16666667       0.38095238       0.50000000 </v>
   <v>       0.33333333       0.38095238       0.50000000 </v>
   <v>       0.50000000       0.38095238       0.50000000 </v>
   <v>       0.00000000       0.42857143       0.50000000 </v>
   <v>       0.16666667       0.42857143       0.50000000 </v>
   <v>       0.33333333       0.42857143       0.50000000 </v>
   <v>       0.50000000       0.42857143       0.50000000 </v>
   <v>       0.00000000       0.47619048       0.50000000 </v>
   <v>       0.16666667       0.47619048       0.50000000 </v>
   <v>       0.33333333       0.47619048       0.50000000 </v>
   <v>       0.50000000       0.47619048       0.50000000 </v>
  </varray>
  <varray name="weights" >
   <v>       0.00198413 </v>
   <v>       0.00396825 </v>
   <v>       0.00396825 </v>
   <v>       0.00198413 </v>
   <v>       0.00396825 </v>
   <v>       0.00793651 </v>
   <v>       0.00793651 </v>
   <v>       0.00396825 </v>
   <v>       0.00396825 </v>
   <v>       0.00793651 </v>
   <v>       0.00793651 </v>
   <v>       0.00396825 </v>
   <v>       0.00396825 </v>
   <v>       0.00793651 </v>
   <v>       0.00793651 </v>
   <v>       0.00396825 </v>
   <v>       0.00396825 </v>
   <v>       0.00793651 </v>
   <v>       0.00793651 </v>
   <v>       0.00396825 </v>
   <v>       0.00396825 </v>
   <v>       0.00793651 </v>
   <v>       0.00793651 </v>
   <v>       0.00396825 </v>
   <v>       0.00396825 </v>
   <v>       0.00793651 </v>
   <v>       0.00793651 </v>
   <v>       0.00396825 </v>
   <v>       0.00396825 </v>
   <v>       0.00793651 </v>
   <v>       0.00793651 </v>
   <v>       0.00396825 </v>
   <v>       0.00396825 </v>
   <v>       0.00793651 </v>
   <v>       0.00793651 </v>
   <v>       0.00396825 </v>
   <v>       0.00396825 </v>
   <v>       0.00793651 </v>
   <v>       0.00793651 </v>
   <v>       0.00396825 </v>
   <v>       0.00396825 </v>
   <v>       0.00793651 </v>
   <v>       0.00793651 </v>
   <v>       0.00396825 </v>
   <v>       0.00396825 </v>
   <v>       0.00793651 </v>
   <v>       0.00793651 </v>
   <v>       0.00396825 </v>
   <v>       0.00793651 </v>
   <v>       0.01587302 </v>
   <v>       0.01587302 </v>
   <v>       0.00793651 </v>
   <v>       0.00793651 </v>
   <v>       0.01587302 </v>
   <v>       0.01587302 </v>
   <v>       0.00793651 </v>
   <v>       0.00793651 </v>
   <v>       0.01587302 </v>
   <v>       0.01587302 </v>
   <v>       0.00793651 </v>
   <v>       0.00793651 </v>
   <v>       0.01587302 </v>
   <v>       0.01587302 </v>
   <v>       0.00793651 </v>
   <v>       0.00793651 </v>
   <v>       0.01587302 </v>
   <v>       0.01587302 </v>
   <v>       0.00793651 </v>
   <v>       0.00793651 </v>
   <v>       0.01587302 </v>
   <v>       0.01587302 </v>
   <v>       0.00793651 </v>
   <v>       0.00793651 </v>
   <v>       0.01587302 </v>
   <v>       0.01587302 </v>
   <v>       0.00793651 </v>
   <v>       0.00793651 </v>
   <v>       0.01587302 </v>
   <v>       0.01587302 </v>
   <v>       0.00793651 </v>
   <v>       0.00793651 </v>
   <v>       0.01587302 </v>
   <v>       0.01587302 </v>
   <v>       0.00793651 </v>
   <v>       0.00793651 </v>
   <v>       0.01587302 </v>
   <v>       0.01587302 </v>
   <v>       0.00793651 </v>
   <v>       0.00198413 </v>
   <v>       0.00396825 </v>
   <v>       0.00396825 </v>
   <v>       0.00198413 </v>
   <v>       0.00396825 </v>
   <v>       0.00793651 </v>
   <v>       0.00793651 </v>
   <v>       0.00396825 </v>
   <v>       0.00396825 </v>
   <v>       0.00793651 </v>
   <v>       0.00793651 </v>
   <v>       0.00396825 </v>
   <v>       0.00396825 </v>
   <v>       0.00793651 </v>
   <v>       0.00793651 </v>
   <v>       0.00396825 </v>
   <v>       0.00396825 </v>
   <v>       0.00793651 </v>
   <v>       0.00793651 </v>
   <v>       0.00396825 </v>
   <v>       0.00396825 </v>
   <v>       0.00793651 </v>
   <v>       0.00793651 </v>
   <v>       0.00396825 </v>
   <v>       0.00396825 </v>
   <v>       0.00793651 </v>
   <v>       0.00793651 </v>
   <v>       0.00396825 </v>
   <v>       0.00396825 </v>
   <v>       0.00793651 </v>
   <v>       0.00793651 </v>
   <v>       0.00396825 </v>
   <v>       0.00396825 </v>
   <v>       0.00793651 </v>
   <v>       0.00793651 </v>
   <v>       0.00396825 </v>
   <v>       0.00396825 </v>
   <v>       0.00793651 </v>
   <v>       0.00793651 </v>
   <v>       0.00396825 </v>
   <v>       0.00396825 </v>
   <v>       0.00793651 </v>
   <v>       0.00793651 </v>
   <v>       0.00396825 </v>
  </varray>
 </kpoints>
 <parameters>
  <separator name="general" >
   <i type="string" name="SYSTEM">unknown system</i>
   <i type="logical" name="LCOMPAT"> F  </i>
  </separator>
  <separator name="electronic" >
   <i type="string" name="PREC">accura</i>
   <i name="ENMAX">    900.00000000</i>
   <i name="ENAUG">   1514.19200000</i>
   <i name="EDIFF">      0.00000010</i>
   <i type="int" name="IALGO">    38</i>
   <i type="int" name="IWAVPR">    10</i>
   <i type="int" name="NBANDS">    40</i>
   <i type="int" name="NBANDSLOW">    -1</i>
   <i type="int" name="NBANDSHIGH">    -1</i>
   <i name="NELECT">     48.00000000</i>
   <i type="int" name="TURBO">     0</i>
   <i type="int" name="IRESTART">     0</i>
   <i type="int" name="NREBOOT">     0</i>
   <i type="int" name="NMIN">     0</i>
   <i name="EREF">      0.00000000</i>
   <separator name="electronic smearing" >
    <i type="int" name="ISMEAR">     0</i>
    <i name="SIGMA">      0.01000000</i>
    <i name="KSPACING">      0.50000000</i>
    <i type="logical" name="KGAMMA"> T  </i>
    <i type="logical" name="KBLOWUP"> T  </i>
   </separator>
   <separator name="electronic projectors" >
    <i type="logical" name="LREAL"> F  </i>
    <v name="ROPT">      0.00000000</v>
    <i type="int" name="LMAXPAW">  -100</i>
    <i type="int" name="LMAXMIX">     2</i>
    <i type="logical" name="NLSPLINE"> F  </i>
   </separator>
   <separator name="electronic startup" >
    <i type="int" name="ISTART">     0</i>
    <i type="int" name="ICHARG">     2</i>
    <i type="int" name="INIWAV">     1</i>
   </separator>
   <separator name="electronic spin" >
    <i type="int" name="ISPIN">     1</i>
    <i type="logical" name="LNONCOLLINEAR"> F  </i>
    <v name="MAGMOM">      1.00000000      1.00000000      1.00000000      1.00000000      1.00000000      1.00000000      1.00000000      1.00000000      1.00000000      1.00000000      1.00000000      1.00000000      1.00000000      1.00000000      1.00000000      1.00000000      1.00000000      1.00000000      1.00000000      1.00000000
      1.00000000      1.00000000      1.00000000      1.00000000</v>
    <i name="NUPDOWN">     -1.00000000</i>
    <i type="logical" name="LSORBIT"> F  </i>
    <v name="SAXIS">      0.00000000      0.00000000      1.00000000</v>
    <i type="logical" name="LSPIRAL"> F  </i>
    <v name="QSPIRAL">      0.00000000      0.00000000      0.00000000</v>
    <i type="logical" name="LZEROZ"> F  </i>
   </separator>
   <separator name="electronic exchange-correlation" >
    <i type="logical" name="LASPH"> F  </i>
   </separator>
   <separator name="electronic convergence" >
    <i type="int" name="NELM">    60</i>
    <i type="int" name="NELMDL">    -5</i>
    <i type="int" name="NELMIN">     2</i>
    <i name="ENINI">    900.00000000</i>
    <separator name="electronic convergence detail" >
     <i type="logical" name="LDIAG"> T  </i>
     <i type="logical" name="LSUBROT"> F  </i>
     <i name="WEIMIN">      0.00000000</i>
     <i name="EBREAK">      0.00000000</i>
     <i name="DEPER">      0.30000000</i>
     <i type="int" name="NRMM">     4</i>
     <i name="TIME">      0.40000000</i>
    </separator>
   </separator>
   <separator name="electronic mixer" >
    <i name="AMIX">      0.40000000</i>
    <i name="BMIX">      1.00000000</i>
    <i name="AMIN">      0.10000000</i>
    <i name="AMIX_MAG">      1.60000000</i>
    <i name="BMIX_MAG">      1.00000000</i>
    <separator name="electronic mixer details" >
     <i type="int" name="IMIX">     4</i>
     <i type="logical" name="MIXFIRST"> F  </i>
     <i type="int" name="MAXMIX">   -45</i>
     <i name="WC">    100.00000000</i>
     <i type="int" name="INIMIX">     1</i>
     <i type="int" name="MIXPRE">     1</i>
     <i type="int" name="MREMOVE">     5</i>
    </separator>
   </separator>
   <separator name="electronic dipolcorrection" >
    <i type="logical" name="LDIPOL"> F  </i>
    <i type="logical" name="LMONO"> F  </i>
    <i type="int" name="IDIPOL">     0</i>
    <i name="EPSILON">      1.00000000</i>
    <v name="DIPOL">   -100.00000000   -100.00000000   -100.00000000</v>
    <i name="EFIELD">      0.00000000</i>
    <i type="logical" name="LVACPOTAV"> F  </i>
   </separator>
  </separator>
  <separator name="grids" >
   <i type="int" name="NGX">    70</i>
   <i type="int" name="NGY">    20</i>
   <i type="int" name="NGZ">    96</i>
   <i type="int" name="NGXF">   140</i>
   <i type="int" name="NGYF">    40</i>
   <i type="int" name="NGZF">   192</i>
   <i type="logical" name="ADDGRID"> F  </i>
  </separator>
  <separator name="ionic" >
   <i type="int" name="NSW">     0</i>
   <i type="int" name="IBRION">    -1</i>
   <i type="int" name="MDALGO">     0</i>
   <i type="int" name="ISIF">     2</i>
   <i name="PSTRESS">      0.00000000</i>
   <i name="EDIFFG">      0.00000100</i>
   <i type="int" name="NFREE">     0</i>
   <i name="POTIM">      0.50000000</i>
   <i name="SMASS">     -3.00000000</i>
   <i name="SCALEE">      1.00000000</i>
  </separator>
  <separator name="ionic md" >
   <i name="TEBEG">      0.00010000</i>
   <i name="TEEND">      0.00010000</i>
   <i type="int" name="NBLOCK">     1</i>
   <i type="int" name="KBLOCK">     1</i>
   <i type="int" name="NPACO">   256</i>
   <i name="APACO">     10.00000000</i>
  </separator>
  <separator name="symmetry" >
   <i type="int" name="ISYM">     2</i>
   <i name="SYMPREC">      0.00001000</i>
  </separator>
  <separator name="dos" >
   <i type="int" name="LORBIT">     0</i>
   <v name="RWIGS">     -1.00000000</v>
   <i type="int" name="NEDOS">   301</i>
   <i name="EMIN">     10.00000000</i>
   <i name="EMAX">    -10.00000000</i>
   <i name="EFERMI">      0.00000000</i>
  </separator>
  <separator name="writing" >
   <i type="int" name="NWRITE">     2</i>
   <i type="logical" name="LWAVE"> F  </i>
   <i type="logical" name="LDOWNSAMPLE"> F  </i>
   <i type="logical" name="LCHARG"> F  </i>
   <i type="logical" name="LPARD"> F  </i>
   <i type="logical" name="LVTOT"> F  </i>
   <i type="logical" name="LVHAR"> F  </i>
   <i type="logical" name="LELF"> F  </i>
   <i type="logical" name="LOPTICS"> F  </i>
   <v name="STM">      0.00000000      0.00000000      0.00000000      0.00000000      0.00000000      0.00000000      0.00000000</v>
  </separator>
  <separator name="performance" >
   <i type="int" name="NPAR">     4</i>
   <i type="int" name="NSIM">     4</i>
   <i type="int" name="NBLK">    -1</i>
   <i type="logical" name="LPLANE"> T  </i>
   <i type="logical" name="LSCALAPACK"> T  </i>
   <i type="logical" name="LSCAAWARE"> F  </i>
   <i type="logical" name="LSCALU"> F  </i>
   <i type="logical" name="LASYNC"> F  </i>
   <i type="logical" name="LORBITALREAL"> F  </i>
  </separator>
  <separator name="miscellaneous" >
   <i type="int" name="IDIOT">     3</i>
   <i type="int" name="PHON_NSTRUCT">    -1</i>
   <i type="logical" name="LMUSIC"> F  </i>
   <v name="POMASS">      4.00000000</v>
   <v name="DARWINR">      0.00000000</v>
   <v name="DARWINV">      1.00000000</v>
   <i type="logical" name="LCORR"> T  </i>
  </separator>
  <i type="logical" name="GGA_COMPAT"> T  </i>
  <i type="logical" name="LBERRY"> F  </i>
  <i type="int" name="ICORELEVEL">     0</i>
  <i type="logical" name="LDAU"> F  </i>
  <i type="int" name="I_CONSTRAINED_M">     0</i>
  <separator name="electronic exchange-correlation" >
   <i type="string" name="GGA    ">PE</i>
   <i type="string" name="XC_C">1</i>
   <i type="int" name="VOSKOWN">     0</i>
   <i type="logical" name="LHFCALC"> F  </i>
   <i type="string" name="PRECFOCK"></i>
   <i type="logical" name="LSYMGRAD"> F  </i>
   <i type="logical" name="LHFONE"> F  </i>
   <i type="logical" name="LRHFCALC"> F  </i>
   <i type="logical" name="LTHOMAS"> F  </i>
   <i type="logical" name="LMODELHF"> F  </i>
   <i type="logical" name="LFOCKACE"> F  </i>
   <i name="ENCUT4O">     -1.00000000</i>
   <i type="int" name="EXXOEP">     0</i>
   <i type="int" name="FOURORBIT">     0</i>
   <i name="AEXX">      0.00000000</i>
   <i name="HFALPHA">      0.00000000</i>
   <i name="MCALPHA">      0.00000000</i>
   <i name="ALDAX">      1.00000000</i>
   <i name="AGGAX">      1.00000000</i>
   <i name="AMGGAX">      1.00000000</i>
   <i name="ALDAC">      1.00000000</i>
   <i name="AGGAC">      1.00000000</i>
   <i name="AMGGAC">      1.00000000</i>
   <i type="int" name="NKREDX">     1</i>
   <i type="int" name="NKREDY">     1</i>
   <i type="int" name="NKREDZ">     1</i>
   <i type="logical" name="SHIFTRED"> F  </i>
   <i type="logical" name="ODDONLY"> F  </i>
   <i type="logical" name="EVENONLY"> F  </i>
   <i type="int" name="LMAXFOCK">     0</i>
   <i type="int" name="NMAXFOCKAE">     0</i>
   <i type="logical" name="LFOCKAEDFT"> F  </i>
   <i name="HFSCREEN">      0.00000000</i>
   <i name="HFSCREENC">      0.00000000</i>
   <i type="int" name="NBANDSGWLOW">     0</i>
  </separator>
  <separator name="vdW DFT" >
   <i type="logical" name="LUSE_VDW"> F  </i>
   <i type="int" name="IVDW_NL">    -1</i>
   <i type="logical" name="LSPIN_VDW"> F  </i>
   <i name="ZAB_VDW">     -0.84910000</i>
   <i name="GAMMA_VDW">      1.39626340</i>
   <i name="ALPHA_VDW">      0.00000000</i>
   <i name="PARAM1">      0.12340000</i>
   <i name="PARAM2">      1.00000000</i>
   <i name="BPARAM">      6.30000000</i>
   <i name="CPARAM">      0.00930000</i>
  </separator>
  <separator name="model GW" >
   <i type="int" name="MODEL_GW">     0</i>
   <i name="MODEL_EPS0">      3.16308025</i>
   <i name="MODEL_ALPHA">      1.00000000</i>
  </separator>
  <separator name="linear response parameters" >
   <i type="logical" name="LEPSILON"> F  </i>
   <i type="logical" name="LRPA"> F  </i>
   <i type="logical" name="LNABLA"> F  </i>
   <i type="logical" name="LVEL"> F  </i>
   <i name="CSHIFT">      0.10000000</i>
   <i name="OMEGAMAX">     -1.00000000</i>
   <i name="DEG_THRESHOLD">      0.00200000</i>
   <i name="RTIME">     -0.10000000</i>
   <i name="WPLASMAI">      0.00000000</i>
   <v name="DFIELD">      0.00000000      0.00000000      0.00000000</v>
   <v name="WPLASMA">      0.00000000      0.00000000      0.00000000      0.00000000      0.00000000      0.00000000      0.00000000      0.00000000      0.00000000</v>
  </separator>
  <separator name="orbital magnetization" >
   <i type="logical" name="NUCIND"> F  </i>
   <v name="MAGPOS">      0.00000000      0.00000000      0.00000000</v>
   <i type="logical" name="LNICSALL"> T  </i>
   <i type="logical" name="ORBITALMAG"> F  </i>
   <i type="logical" name="LMAGBLOCH"> F  </i>
   <i type="logical" name="LCHIMAG"> F  </i>
   <i type="logical" name="LGAUGE"> T  </i>
   <i type="int" name="MAGATOM">     0</i>
   <v name="MAGDIPOL">      0.00000000      0.00000000      0.00000000</v>
   <v name="AVECCONST">      0.00000000      0.00000000      0.00000000</v>
  </separator>
  <separator name="response functions" >
   <i type="logical" name="LALL_IN_ONE"> F  </i>
   <i type="int" name="IALL_IN_ONE">    -1</i>
   <i type="int" name="NBANDS_WAVE">    -1</i>
   <i type="logical" name="LFINITE_TEMPERATURE"> F  </i>
   <i type="logical" name="LADDER"> F  </i>
   <i type="logical" name="LRPAFORCE"> F  </i>
   <i type="logical" name="LFXC"> F  </i>
   <i type="logical" name="LHARTREE"> T  </i>
   <i type="int" name="IBSE">     0</i>
   <v type="int" name="KPOINT">    -1     0     0     0</v>
   <i type="logical" name="LTCTC"> F  </i>
   <i type="logical" name="LTCTE"> F  </i>
   <i type="logical" name="LTETE"> F  </i>
   <i type="logical" name="LTRIPLET"> F  </i>
   <i type="logical" name="LFXCEPS"> F  </i>
   <i type="logical" name="LFXHEG"> F  </i>
   <i type="int" name="NATURALO">     2</i>
   <i type="logical" name="LHOLEGF"> F  </i>
   <i type="logical" name="L2ORDER"> F  </i>
   <i type="logical" name="LDMP1"> F  </i>
   <i type="logical" name="LMP2LT"> F  </i>
   <i type="logical" name="LSMP2LT"> F  </i>
   <i type="logical" name="LGWLF"> F  </i>
   <i name="ENCUTGW">     -1.60000002</i>
   <i name="ENCUTGWSOFT">     -1.60000002</i>
   <i name="ENCUTLF">     -1.00000000</i>
   <i type="logical" name="ESF_SPLINES"> F  </i>
   <i name="ESF_CONV">      0.01000000</i>
   <i type="int" name="ESF_NINTER">    15</i>
   <i type="int" name="LMAXMP2">    -1</i>
   <i name="SCISSOR">      0.00000000</i>
   <i type="int" name="NOMEGA">     0</i>
   <i type="int" name="NOMEGAR">     0</i>
   <i type="int" name="NBANDSGW">    -1</i>
   <i type="int" name="NBANDSO">    -1</i>
   <i type="int" name="NBANDSV">    -1</i>
   <i type="int" name="NELMGW">     1</i>
   <i type="int" name="NELMHF">     1</i>
   <i type="int" name="DIM">     3</i>
   <i type="int" name="IESPILON">     4</i>
   <i type="int" name="ANTIRES">     0</i>
   <i name="OMEGAMAX">    -30.00000000</i>
   <i name="OMEGAMIN">    -30.00000000</i>
   <i name="OMEGATL">   -200.00000000</i>
   <i type="int" name="OMEGAGRID">     0</i>
   <i name="CSHIFT">     -0.10000000</i>
   <i type="logical" name="LSELFENERGY"> F  </i>
   <i type="logical" name="LSPECTRAL"> F  </i>
   <i type="logical" name="LSPECTRALGW"> F  </i>
   <i type="logical" name="LSINGLES"> F  </i>
   <i type="logical" name="LFERMIGW"> F  </i>
   <i type="logical" name="ODDONLYGW"> F  </i>
   <i type="logical" name="EVENONLYGW"> F  </i>
   <i type="int" name="NKREDLFX">     1</i>
   <i type="int" name="NKREDLFY">     1</i>
   <i type="int" name="NKREDLFZ">     1</i>
   <i type="int" name="MAXMEM">  2800</i>
   <i type="int" name="TELESCOPE">     0</i>
   <i type="int" name="NTAUPAR">    -1</i>
   <i type="int" name="NOMEGAPAR">    -1</i>
   <i name="DAMP_NEWTON">      0.80000001</i>
   <i name="LAMBDA">      1.00000000</i>
  </separator>
  <separator name="External order field" >
   <i name="OFIELD_KAPPA">      0.00000000</i>
   <v name="OFIELD_K">      0.00000000      0.00000000      0.00000000</v>
   <i name="OFIELD_Q6_NEAR">      0.00000000</i>
   <i name="OFIELD_Q6_FAR">      0.00000000</i>
   <i name="OFIELD_A">      0.00000000</i>
  </separator>
  <separator name="optional k-points parameters" >
   <i type="int" name="KPOINTS_OPT_MODE">     1</i>
   <i type="logical" name="LKPOINTS_OPT"> F  </i>
  </separator>
 </parameters>
 <atominfo>
  <atoms>      24 </atoms>
  <types>       1 </types>
  <array name="atoms" >
   <dimension dim="1">ion</dimension>
   <field type="string">element</field>
   <field type="int">atomtype</field>
   <set>
    <rc><c>He</c><c>   1</c></rc>
    <rc><c>He</c><c>   1</c></rc>
    <rc><c>He</c><c>   1</c></rc>
    <rc><c>He</c><c>   1</c></rc>
    <rc><c>He</c><c>   1</c></rc>
    <rc><c>He</c><c>   1</c></rc>
    <rc><c>He</c><c>   1</c></rc>
    <rc><c>He</c><c>   1</c></rc>
    <rc><c>He</c><c>   1</c></rc>
    <rc><c>He</c><c>   1</c></rc>
    <rc><c>He</c><c>   1</c></rc>
    <rc><c>He</c><c>   1</c></rc>
    <rc><c>He</c><c>   1</c></rc>
    <rc><c>He</c><c>   1</c></rc>
    <rc><c>He</c><c>   1</c></rc>
    <rc><c>He</c><c>   1</c></rc>
    <rc><c>He</c><c>   1</c></rc>
    <rc><c>He</c><c>   1</c></rc>
    <rc><c>He</c><c>   1</c></rc>
    <rc><c>He</c><c>   1</c></rc>
    <rc><c>He</c><c>   1</c></rc>
    <rc><c>He</c><c>   1</c></rc>
    <rc><c>He</c><c>   1</c></rc>
    <rc><c>He</c><c>   1</c></rc>
   </set>
  </array>
  <array name="atomtypes" >
   <dimension dim="1">type</dimension>
   <field type="int">atomspertype</field>
   <field type="string">element</field>
   <field>mass</field>
   <field>valence</field>
   <field type="string">pseudopotential</field>
   <set>
    <rc><c>  24</c><c>He</c><c>      4.00000000</c><c>      2.00000000</c><c>  PAW_PBE He_GW 23Feb2015               </c></rc>
   </set>
  </array>
 </atominfo>
 <structure name="initialpos" >
  <crystal>
   <varray name="basis" >
    <v>       5.86288214       3.38493658       0.00000000 </v>
    <v>      -0.97714702       1.69246829       0.00000000 </v>
    <v>       0.00000000       0.00000000       9.56312345 </v>
   </varray>
   <i name="volume">    126.52321019 </i>
   <varray name="rec_basis" >
    <v>       0.12792343       0.07385663      -0.00000000 </v>
    <v>      -0.25584686       0.44313976       0.00000000 </v>
    <v>       0.00000000      -0.00000000       0.10456835 </v>
   </varray>
  </crystal>
  <varray name="positions" >
   <v>       0.08333333       0.50000000       0.08333333 </v>
   <v>       0.33333333       0.00000000       0.08333333 </v>
   <v>       0.58333333       0.50000000       0.08333333 </v>
   <v>       0.83333333       0.00000000       0.08333333 </v>
   <v>       0.08333333       0.50000000       0.41666667 </v>
   <v>       0.33333333       0.00000000       0.41666667 </v>
   <v>       0.58333333       0.50000000       0.41666667 </v>
   <v>       0.83333333       0.00000000       0.41666667 </v>
   <v>       0.08333333       0.50000000       0.75000000 </v>
   <v>       0.33333333       0.00000000       0.75000000 </v>
   <v>       0.58333333       0.50000000       0.75000000 </v>
   <v>       0.83333333       0.00000000       0.75000000 </v>
   <v>       0.16666667       0.00000000       0.25000000 </v>
   <v>       0.41666667       0.50000000       0.25000000 </v>
   <v>       0.66666667       0.00000000       0.25000000 </v>
   <v>       0.91666667       0.50000000       0.25000000 </v>
   <v>       0.16666667       0.00000000       0.58333333 </v>
   <v>       0.41666667       0.50000000       0.58333333 </v>
   <v>       0.66666667       0.00000000       0.58333333 </v>
   <v>       0.91666667       0.50000000       0.58333333 </v>
   <v>       0.16666667       0.00000000       0.91666667 </v>
   <v>       0.41666667       0.50000000       0.91666667 </v>
   <v>       0.66666667       0.00000000       0.91666667 </v>
   <v>       0.91666667       0.50000000       0.91666667 </v>
  </varray>
 </structure>
 <calculation>
  <scstep>
   <time name="dav">    1.38    1.38</time>
   <time name="total">    1.42    1.42</time>
   <energy>
    <i name="alphaZ">     46.16035745 </i>
    <i name="ewald">  -1147.00802993 </i>
    <i name="hartreedc">   -325.55446036 </i>
    <i name="XCdc">    188.77271017 </i>
    <i name="pawpsdc">   1096.62050802 </i>
    <i name="pawaedc">  -1132.77759231 </i>
    <i name="eentropy">     -0.00002759 </i>
    <i name="bandstr">   -323.44306909 </i>
    <i name="atom">   1889.38125292 </i>
    <i name="e_fr_energy">    292.15164928 </i>
    <i name="e_wo_entrp">    292.15167687 </i>
    <i name="e_0_energy">    292.15166308 </i>
   </energy>
  </scstep>
  <scstep>
   <time name="dav">    1.47    1.48</time>
   <time name="total">    1.47    1.48</time>
   <energy>
    <i name="e_fr_energy">     25.23892458 </i>
    <i name="e_wo_entrp">     25.23892458 </i>
    <i name="e_0_energy">     25.23892458 </i>
   </energy>
  </scstep>
  <scstep>
   <time name="dav">    1.82    1.82</time>
   <time name="total">    1.82    1.82</time>
   <energy>
    <i name="e_fr_energy">      8.36962102 </i>
    <i name="e_wo_entrp">      8.36962102 </i>
    <i name="e_0_energy">      8.36962102 </i>
   </energy>
  </scstep>
  <scstep>
   <time name="dav">    2.06    2.06</time>
   <time name="total">    2.06    2.06</time>
   <energy>
    <i name="e_fr_energy">      7.81276078 </i>
    <i name="e_wo_entrp">      7.81276078 </i>
    <i name="e_0_energy">      7.81276078 </i>
   </energy>
  </scstep>
  <scstep>
   <time name="dav">    2.13    2.13</time>
   <time name="total">    2.22    2.22</time>
   <energy>
    <i name="e_fr_energy">      7.79461190 </i>
    <i name="e_wo_entrp">      7.79461190 </i>
    <i name="e_0_energy">      7.79461190 </i>
   </energy>
  </scstep>
  <scstep>
   <time name="dav">    2.31    2.31</time>
   <time name="total">    2.43    2.43</time>
   <energy>
    <i name="e_fr_energy">      7.85438542 </i>
    <i name="e_wo_entrp">      7.85438542 </i>
    <i name="e_0_energy">      7.85438542 </i>
   </energy>
  </scstep>
  <scstep>
   <time name="dav">    2.29    2.30</time>
   <time name="total">    2.43    2.44</time>
   <energy>
    <i name="e_fr_energy">      7.86889519 </i>
    <i name="e_wo_entrp">      7.86889519 </i>
    <i name="e_0_energy">      7.86889519 </i>
   </energy>
  </scstep>
  <scstep>
   <time name="dav">    2.23    2.23</time>
   <time name="total">    2.33    2.33</time>
   <energy>
    <i name="e_fr_energy">      7.86800937 </i>
    <i name="e_wo_entrp">      7.86800937 </i>
    <i name="e_0_energy">      7.86800937 </i>
   </energy>
  </scstep>
  <scstep>
   <time name="dav">    2.04    2.04</time>
   <time name="total">    2.18    2.18</time>
   <energy>
    <i name="e_fr_energy">      7.86753968 </i>
    <i name="e_wo_entrp">      7.86753968 </i>
    <i name="e_0_energy">      7.86753968 </i>
   </energy>
  </scstep>
  <scstep>
   <time name="dav">    2.42    2.42</time>
   <time name="total">    2.56    2.56</time>
   <energy>
    <i name="e_fr_energy">      7.86753937 </i>
    <i name="e_wo_entrp">      7.86753937 </i>
    <i name="e_0_energy">      7.86753937 </i>
   </energy>
  </scstep>
  <scstep>
   <time name="dav">    2.13    2.13</time>
   <time name="total">    2.26    2.26</time>
   <energy>
    <i name="e_fr_energy">      7.86753905 </i>
    <i name="e_wo_entrp">      7.86753905 </i>
    <i name="e_0_energy">      7.86753905 </i>
   </energy>
  </scstep>
  <scstep>
   <time name="dav">    1.68    1.68</time>
   <time name="total">    1.78    1.78</time>
   <energy>
    <i name="e_fr_energy">      7.86753938 </i>
    <i name="e_wo_entrp">      7.86753938 </i>
    <i name="e_0_energy">      7.86753938 </i>
   </energy>
  </scstep>
  <scstep>
   <time name="dav">    1.41    1.41</time>
   <time name="total">    1.44    1.44</time>
   <energy>
    <i name="alphaZ">     46.16035745 </i>
    <i name="ewald">  -1147.00802993 </i>
    <i name="hartreedc">   -338.63972480 </i>
    <i name="XCdc">    190.97724257 </i>
    <i name="pawpsdc">   1147.02648619 </i>
    <i name="pawaedc">  -1184.55393946 </i>
    <i name="eentropy">     -0.00000000 </i>
    <i name="bandstr">   -595.47610559 </i>
    <i name="atom">   1889.38125292 </i>
    <i name="e_fr_energy">      7.86753933 </i>
    <i name="e_wo_entrp">      7.86753933 </i>
    <i name="e_0_energy">      7.86753933 </i>
   </energy>
  </scstep>
  <structure>
   <crystal>
    <varray name="basis" >
     <v>       5.86288214       3.38493658       0.00000000 </v>
     <v>      -0.97714702       1.69246829       0.00000000 </v>
     <v>       0.00000000       0.00000000       9.56312345 </v>
    </varray>
    <i name="volume">    126.52321019 </i>
    <varray name="rec_basis" >
     <v>       0.12792343       0.07385663      -0.00000000 </v>
     <v>      -0.25584686       0.44313976       0.00000000 </v>
     <v>       0.00000000      -0.00000000       0.10456835 </v>
    </varray>
   </crystal>
   <varray name="positions" >
    <v>       0.08333333       0.50000000       0.08333333 </v>
    <v>       0.33333333       0.00000000       0.08333333 </v>
    <v>       0.58333333       0.50000000       0.08333333 </v>
    <v>       0.83333333       0.00000000       0.08333333 </v>
    <v>       0.08333333       0.50000000       0.41666667 </v>
    <v>       0.33333333       0.00000000       0.41666667 </v>
    <v>       0.58333333       0.50000000       0.41666667 </v>
    <v>       0.83333333       0.00000000       0.41666667 </v>
    <v>       0.08333333       0.50000000       0.75000000 </v>
    <v>       0.33333333       0.00000000       0.75000000 </v>
    <v>       0.58333333       0.50000000       0.75000000 </v>
    <v>       0.83333333       0.00000000       0.75000000 </v>
    <v>       0.16666667       0.00000000       0.25000000 </v>
    <v>       0.41666667       0.50000000       0.25000000 </v>
    <v>       0.66666667       0.00000000       0.25000000 </v>
    <v>       0.91666667       0.50000000       0.25000000 </v>
    <v>       0.16666667       0.00000000       0.58333333 </v>
    <v>       0.41666667       0.50000000       0.58333333 </v>
    <v>       0.66666667       0.00000000       0.58333333 </v>
    <v>       0.91666667       0.50000000       0.58333333 </v>
    <v>       0.16666667       0.00000000       0.91666667 </v>
    <v>       0.41666667       0.50000000       0.91666667 </v>
    <v>       0.66666667       0.00000000       0.91666667 </v>
    <v>       0.91666667       0.50000000       0.91666667 </v>
   </varray>
  </structure>
  <varray name="forces" >
   <v>       0.00004362       0.00002518       0.00000000 </v>
   <v>       0.00004362       0.00002518       0.00000000 </v>
   <v>       0.00004362       0.00002518       0.00000000 </v>
   <v>       0.00004362       0.00002518       0.00000000 </v>
   <v>       0.00004362       0.00002518       0.00000000 </v>
   <v>       0.00004362       0.00002518      -0.00000000 </v>
   <v>       0.00004362       0.00002518      -0.00000000 </v>
   <v>       0.00004362       0.00002518      -0.00000000 </v>
   <v>       0.00004362       0.00002518      -0.00000000 </v>
   <v>       0.00004362       0.00002518      -0.00000000 </v>
   <v>       0.00004362       0.00002518      -0.00000000 </v>
   <v>       0.00004362       0.00002518      -0.00000000 </v>
   <v>      -0.00004362      -0.00002518      -0.00000000 </v>
   <v>      -0.00004362      -0.00002518      -0.00000000 </v>
   <v>      -0.00004362      -0.00002518      -0.00000000 </v>
   <v>      -0.00004362      -0.00002518      -0.00000000 </v>
   <v>      -0.00004362      -0.00002518       0.00000000 </v>
   <v>      -0.00004362      -0.00002518       0.00000000 </v>
   <v>      -0.00004362      -0.00002518       0.00000000 </v>
   <v>      -0.00004362      -0.00002518       0.00000000 </v>
   <v>      -0.00004362      -0.00002518      -0.00000000 </v>
   <v>      -0.00004362      -0.00002518      -0.00000000 </v>
   <v>      -0.00004362      -0.00002518      -0.00000000 </v>
   <v>      -0.00004362      -0.00002518      -0.00000000 </v>
  </varray>
  <varray name="stress" >
   <v>     276.97536897       0.02145596       0.00000000 </v>
   <v>       0.02145596     276.95059376       0.00000000 </v>
   <v>       0.00000000       0.00000000     276.55160066 </v>
  </varray>
  <energy>
   <i name="e_fr_energy">      7.27425084 </i>
   <i name="e_wo_entrp">      7.27425084 </i>
   <i name="e_0_energy">      7.27425084 </i>
  </energy>
  <time name="totalsc">   29.58   29.64</time>
  <eigenvalues>
   <array>
    <dimension dim="1">band</dimension>
    <dimension dim="2">kpoint</dimension>
    <dimension dim="3">spin</dimension>
    <field>eigene</field>
    <field>occ</field>
    <set>
     <set comment="spin 1">
      <set comment="kpoint 1">
       <r>  -17.9202    1.0000 </r>
       <r>  -16.8033    1.0000 </r>
       <r>  -16.8033    1.0000 </r>
       <r>  -15.7665    1.0000 </r>
       <r>  -15.7665    1.0000 </r>
       <r>  -14.7868    1.0000 </r>
       <r>  -14.7868    1.0000 </r>
       <r>  -14.7868    1.0000 </r>
       <r>  -14.7868    1.0000 </r>
       <r>  -14.0005    1.0000 </r>
       <r>  -14.0005    1.0000 </r>
       <r>  -12.4434    1.0000 </r>
       <r>  -12.4434    1.0000 </r>
       <r>  -12.4434    1.0000 </r>
       <r>  -12.4434    1.0000 </r>
       <r>  -12.1783    1.0000 </r>
       <r>  -12.0802    1.0000 </r>
       <r>  -11.7150    1.0000 </r>
       <r>  -11.7150    1.0000 </r>
       <r>  -10.9730    1.0000 </r>
       <r>  -10.9730    1.0000 </r>
       <r>  -10.8574    1.0000 </r>
       <r>  -10.8574    1.0000 </r>
       <r>  -10.4900    1.0000 </r>
       <r>    8.1284    0.0000 </r>
       <r>    9.2517    0.0000 </r>
       <r>    9.2517    0.0000 </r>
       <r>    9.4204    0.0000 </r>
       <r>   11.3764    0.0000 </r>
       <r>   11.3764    0.0000 </r>
       <r>   11.5343    0.0000 </r>
       <r>   11.5343    0.0000 </r>
       <r>   11.6692    0.0000 </r>
       <r>   11.6692    0.0000 </r>
       <r>   12.4436    0.0000 </r>
       <r>   12.4436    0.0000 </r>
       <r>   12.4436    0.0000 </r>
       <r>   12.4436    0.0000 </r>
       <r>   14.5673    0.0000 </r>
       <r>   14.5673    0.0000 </r>
      </set>
      <set comment="kpoint 2">
       <r>  -17.8565    1.0000 </r>
       <r>  -16.7428    1.0000 </r>
       <r>  -16.7428    1.0000 </r>
       <r>  -16.3918    1.0000 </r>
       <r>  -15.3653    1.0000 </r>
       <r>  -15.3653    1.0000 </r>
       <r>  -15.0706    1.0000 </r>
       <r>  -14.1523    1.0000 </r>
       <r>  -14.1523    1.0000 </r>
       <r>  -13.9511    1.0000 </r>
       <r>  -13.9511    1.0000 </r>
       <r>  -12.8680    1.0000 </r>
       <r>  -12.8680    1.0000 </r>
       <r>  -12.3905    1.0000 </r>
       <r>  -12.0424    1.0000 </r>
       <r>  -12.0057    1.0000 </r>
       <r>  -12.0057    1.0000 </r>
       <r>  -11.8749    1.0000 </r>
       <r>  -11.8749    1.0000 </r>
       <r>  -11.2540    1.0000 </r>
       <r>  -10.8839    1.0000 </r>
       <r>  -10.8839    1.0000 </r>
       <r>  -10.7097    1.0000 </r>
       <r>  -10.4348    1.0000 </r>
       <r>    8.2188    0.0000 </r>
       <r>    9.4308    0.0000 </r>
       <r>    9.4308    0.0000 </r>
       <r>    9.6286    0.0000 </r>
       <r>   10.3852    0.0000 </r>
       <r>   11.6533    0.0000 </r>
       <r>   11.6533    0.0000 </r>
       <r>   11.7121    0.0000 </r>
       <r>   11.7121    0.0000 </r>
       <r>   12.1911    0.0000 </r>
       <r>   12.1911    0.0000 </r>
       <r>   12.4059    0.0000 </r>
       <r>   12.4059    0.0000 </r>
       <r>   12.5459    0.0000 </r>
       <r>   13.7024    0.0000 </r>
       <r>   13.7112    0.0000 </r>
      </set>
      <set comment="kpoint 3">
       <r>  -17.6666    1.0000 </r>
       <r>  -16.9259    1.0000 </r>
       <r>  -16.5627    1.0000 </r>
       <r>  -16.5627    1.0000 </r>
       <r>  -15.8644    1.0000 </r>
       <r>  -15.8644    1.0000 </r>
       <r>  -14.3331    1.0000 </r>
       <r>  -13.8048    1.0000 </r>
       <r>  -13.8048    1.0000 </r>
       <r>  -13.4937    1.0000 </r>
       <r>  -13.4937    1.0000 </r>
       <r>  -13.2501    1.0000 </r>
       <r>  -13.2501    1.0000 </r>
       <r>  -12.9150    1.0000 </r>
       <r>  -12.2885    1.0000 </r>
       <r>  -12.2885    1.0000 </r>
       <r>  -11.9315    1.0000 </r>
       <r>  -11.5920    1.0000 </r>
       <r>  -11.5920    1.0000 </r>
       <r>  -11.5224    1.0000 </r>
       <r>  -11.0025    1.0000 </r>
       <r>  -11.0025    1.0000 </r>
       <r>  -10.4993    1.0000 </r>
       <r>  -10.3624    1.0000 </r>
       <r>    8.4898    0.0000 </r>
       <r>    9.5733    0.0000 </r>
       <r>    9.9410    0.0000 </r>
       <r>    9.9410    0.0000 </r>
       <r>   10.2365    0.0000 </r>
       <r>   11.5425    0.0000 </r>
       <r>   11.5425    0.0000 </r>
       <r>   11.8354    0.0000 </r>
       <r>   11.8354    0.0000 </r>
       <r>   11.9834    0.0000 </r>
       <r>   11.9834    0.0000 </r>
       <r>   12.2311    0.0000 </r>
       <r>   12.2311    0.0000 </r>
       <r>   12.4217    0.0000 </r>
       <r>   13.0116    0.0000 </r>
       <r>   13.0116    0.0000 </r>
      </set>
      <set comment="kpoint 4">
       <r>  -17.3542    1.0000 </r>
       <r>  -17.3542    1.0000 </r>
       <r>  -16.2674    1.0000 </r>
       <r>  -16.2674    1.0000 </r>
       <r>  -16.2674    1.0000 </r>
       <r>  -16.2674    1.0000 </r>
       <r>  -13.5946    1.0000 </r>
       <r>  -13.5946    1.0000 </r>
       <r>  -13.5676    1.0000 </r>
       <r>  -13.5676    1.0000 </r>
       <r>  -13.5676    1.0000 </r>
       <r>  -13.5676    1.0000 </r>
       <r>  -12.8536    1.0000 </r>
       <r>  -12.8536    1.0000 </r>
       <r>  -12.8536    1.0000 </r>
       <r>  -12.8536    1.0000 </r>
       <r>  -11.7541    1.0000 </r>
       <r>  -11.7541    1.0000 </r>
       <r>  -11.2444    1.0000 </r>
       <r>  -11.2444    1.0000 </r>
       <r>  -11.2444    1.0000 </r>
       <r>  -11.2444    1.0000 </r>
       <r>  -10.3766    1.0000 </r>
       <r>  -10.3766    1.0000 </r>
       <r>    8.9414    0.0000 </r>
       <r>    8.9414    0.0000 </r>
       <r>   10.6988    0.0000 </r>
       <r>   10.6988    0.0000 </r>
       <r>   10.6988    0.0000 </r>
       <r>   10.6988    0.0000 </r>
       <r>   11.1943    0.0000 </r>
       <r>   11.1943    0.0000 </r>
       <r>   12.0203    0.0000 </r>
       <r>   12.0203    0.0000 </r>
       <r>   12.0203    0.0000 </r>
       <r>   12.0203    0.0000 </r>
       <r>   12.4557    0.0000 </r>
       <r>   12.4557    0.0000 </r>
       <r>   12.4557    0.0000 </r>
       <r>   12.4557    0.0000 </r>
      </set>
      <set comment="kpoint 5">
       <r>  -17.8578    1.0000 </r>
       <r>  -16.7440    1.0000 </r>
       <r>  -16.7440    1.0000 </r>
       <r>  -15.7117    1.0000 </r>
       <r>  -15.7117    1.0000 </r>
       <r>  -14.7363    1.0000 </r>
       <r>  -14.7363    1.0000 </r>
       <r>  -14.7363    1.0000 </r>
       <r>  -14.7363    1.0000 </r>
       <r>  -13.9521    1.0000 </r>
       <r>  -13.9521    1.0000 </r>
       <r>  -12.4066    1.0000 </r>
       <r>  -12.4066    1.0000 </r>
       <r>  -12.4066    1.0000 </r>
       <r>  -12.4066    1.0000 </r>
       <r>  -12.1404    1.0000 </r>
       <r>  -12.0432    1.0000 </r>
       <r>  -11.6834    1.0000 </r>
       <r>  -11.6834    1.0000 </r>
       <r>  -10.9485    1.0000 </r>
       <r>  -10.9485    1.0000 </r>
       <r>  -10.8399    1.0000 </r>
       <r>  -10.8399    1.0000 </r>
       <r>  -10.4797    1.0000 </r>
       <r>    8.2170    0.0000 </r>
       <r>    9.3381    0.0000 </r>
       <r>    9.3381    0.0000 </r>
       <r>    9.4859    0.0000 </r>
       <r>   11.4647    0.0000 </r>
       <r>   11.4647    0.0000 </r>
       <r>   11.6166    0.0000 </r>
       <r>   11.6166    0.0000 </r>
       <r>   11.7113    0.0000 </r>
       <r>   11.7113    0.0000 </r>
       <r>   12.4692    0.0000 </r>
       <r>   12.4692    0.0000 </r>
       <r>   12.4692    0.0000 </r>
       <r>   12.4692    0.0000 </r>
       <r>   14.5205    0.0000 </r>
       <r>   14.5205    0.0000 </r>
      </set>
      <set comment="kpoint 6">
       <r>  -17.7943    1.0000 </r>
       <r>  -16.6838    1.0000 </r>
       <r>  -16.6838    1.0000 </r>
       <r>  -16.3346    1.0000 </r>
       <r>  -15.3120    1.0000 </r>
       <r>  -15.3120    1.0000 </r>
       <r>  -15.0188    1.0000 </r>
       <r>  -14.1052    1.0000 </r>
       <r>  -14.1052    1.0000 </r>
       <r>  -13.9030    1.0000 </r>
       <r>  -13.9030    1.0000 </r>
       <r>  -12.8276    1.0000 </r>
       <r>  -12.8276    1.0000 </r>
       <r>  -12.3519    1.0000 </r>
       <r>  -12.0058    1.0000 </r>
       <r>  -11.9730    1.0000 </r>
       <r>  -11.9730    1.0000 </r>
       <r>  -11.8423    1.0000 </r>
       <r>  -11.8423    1.0000 </r>
       <r>  -11.2259    1.0000 </r>
       <r>  -10.8654    1.0000 </r>
       <r>  -10.8654    1.0000 </r>
       <r>  -10.6890    1.0000 </r>
       <r>  -10.4240    1.0000 </r>
       <r>    8.3073    0.0000 </r>
       <r>    9.5148    0.0000 </r>
       <r>    9.5148    0.0000 </r>
       <r>    9.6924    0.0000 </r>
       <r>   10.4735    0.0000 </r>
       <r>   11.7288    0.0000 </r>
       <r>   11.7288    0.0000 </r>
       <r>   11.7533    0.0000 </r>
       <r>   11.7533    0.0000 </r>
       <r>   12.2286    0.0000 </r>
       <r>   12.2286    0.0000 </r>
       <r>   12.4301    0.0000 </r>
       <r>   12.4301    0.0000 </r>
       <r>   12.6341    0.0000 </r>
       <r>   13.6728    0.0000 </r>
       <r>   13.6736    0.0000 </r>
      </set>
      <set comment="kpoint 7">
       <r>  -17.6050    1.0000 </r>
       <r>  -16.8667    1.0000 </r>
       <r>  -16.5044    1.0000 </r>
       <r>  -16.5044    1.0000 </r>
       <r>  -15.8089    1.0000 </r>
       <r>  -15.8089    1.0000 </r>
       <r>  -14.2847    1.0000 </r>
       <r>  -13.7577    1.0000 </r>
       <r>  -13.7577    1.0000 </r>
       <r>  -13.4504    1.0000 </r>
       <r>  -13.4504    1.0000 </r>
       <r>  -13.2068    1.0000 </r>
       <r>  -13.2068    1.0000 </r>
       <r>  -12.8740    1.0000 </r>
       <r>  -12.2531    1.0000 </r>
       <r>  -12.2531    1.0000 </r>
       <r>  -11.8959    1.0000 </r>
       <r>  -11.5636    1.0000 </r>
       <r>  -11.5636    1.0000 </r>
       <r>  -11.4912    1.0000 </r>
       <r>  -10.9816    1.0000 </r>
       <r>  -10.9816    1.0000 </r>
       <r>  -10.4823    1.0000 </r>
       <r>  -10.3503    1.0000 </r>
       <r>    8.5783    0.0000 </r>
       <r>    9.6617    0.0000 </r>
       <r>   10.0182    0.0000 </r>
       <r>   10.0182    0.0000 </r>
       <r>   10.2946    0.0000 </r>
       <r>   11.5957    0.0000 </r>
       <r>   11.5957    0.0000 </r>
       <r>   11.8738    0.0000 </r>
       <r>   11.8738    0.0000 </r>
       <r>   12.0396    0.0000 </r>
       <r>   12.0396    0.0000 </r>
       <r>   12.2597    0.0000 </r>
       <r>   12.2597    0.0000 </r>
       <r>   12.4510    0.0000 </r>
       <r>   13.0071    0.0000 </r>
       <r>   13.0071    0.0000 </r>
      </set>
      <set comment="kpoint 8">
       <r>  -17.2936    1.0000 </r>
       <r>  -17.2936    1.0000 </r>
       <r>  -16.2102    1.0000 </r>
       <r>  -16.2102    1.0000 </r>
       <r>  -16.2102    1.0000 </r>
       <r>  -16.2102    1.0000 </r>
       <r>  -13.5500    1.0000 </r>
       <r>  -13.5500    1.0000 </r>
       <r>  -13.5221    1.0000 </r>
       <r>  -13.5221    1.0000 </r>
       <r>  -13.5221    1.0000 </r>
       <r>  -13.5221    1.0000 </r>
       <r>  -12.8143    1.0000 </r>
       <r>  -12.8143    1.0000 </r>
       <r>  -12.8143    1.0000 </r>
       <r>  -12.8143    1.0000 </r>
       <r>  -11.7204    1.0000 </r>
       <r>  -11.7204    1.0000 </r>
       <r>  -11.2201    1.0000 </r>
       <r>  -11.2201    1.0000 </r>
       <r>  -11.2201    1.0000 </r>
       <r>  -11.2201    1.0000 </r>
       <r>  -10.3625    1.0000 </r>
       <r>  -10.3625    1.0000 </r>
       <r>    9.0298    0.0000 </r>
       <r>    9.0298    0.0000 </r>
       <r>   10.7653    0.0000 </r>
       <r>   10.7653    0.0000 </r>
       <r>   10.7653    0.0000 </r>
       <r>   10.7653    0.0000 </r>
       <r>   11.2415    0.0000 </r>
       <r>   11.2415    0.0000 </r>
       <r>   12.0544    0.0000 </r>
       <r>   12.0544    0.0000 </r>
       <r>   12.0544    0.0000 </r>
       <r>   12.0544    0.0000 </r>
       <r>   12.4832    0.0000 </r>
       <r>   12.4832    0.0000 </r>
       <r>   12.4832    0.0000 </r>
       <r>   12.4832    0.0000 </r>
      </set>
      <set comment="kpoint 9">
       <r>  -17.6717    1.0000 </r>
       <r>  -16.5676    1.0000 </r>
       <r>  -16.5676    1.0000 </r>
       <r>  -15.5490    1.0000 </r>
       <r>  -15.5490    1.0000 </r>
       <r>  -14.5867    1.0000 </r>
       <r>  -14.5867    1.0000 </r>
       <r>  -14.5867    1.0000 </r>
       <r>  -14.5867    1.0000 </r>
       <r>  -13.8087    1.0000 </r>
       <r>  -13.8087    1.0000 </r>
       <r>  -12.2987    1.0000 </r>
       <r>  -12.2987    1.0000 </r>
       <r>  -12.2987    1.0000 </r>
       <r>  -12.2987    1.0000 </r>
       <r>  -12.0287    1.0000 </r>
       <r>  -11.9344    1.0000 </r>
       <r>  -11.5909    1.0000 </r>
       <r>  -11.5909    1.0000 </r>
       <r>  -10.8780    1.0000 </r>
       <r>  -10.8780    1.0000 </r>
       <r>  -10.7908    1.0000 </r>
       <r>  -10.7908    1.0000 </r>
       <r>  -10.4532    1.0000 </r>
       <r>    8.4824    0.0000 </r>
       <r>    9.5969    0.0000 </r>
       <r>    9.5969    0.0000 </r>
       <r>    9.6782    0.0000 </r>
       <r>   11.7294    0.0000 </r>
       <r>   11.7294    0.0000 </r>
       <r>   11.8322    0.0000 </r>
       <r>   11.8322    0.0000 </r>
       <r>   11.8617    0.0000 </r>
       <r>   11.8617    0.0000 </r>
       <r>   12.5352    0.0000 </r>
       <r>   12.5352    0.0000 </r>
       <r>   12.5352    0.0000 </r>
       <r>   12.5352    0.0000 </r>
       <r>   14.3690    0.0000 </r>
       <r>   14.3690    0.0000 </r>
      </set>
      <set comment="kpoint 10">
       <r>  -17.6088    1.0000 </r>
       <r>  -16.5080    1.0000 </r>
       <r>  -16.5080    1.0000 </r>
       <r>  -16.1644    1.0000 </r>
       <r>  -15.1538    1.0000 </r>
       <r>  -15.1538    1.0000 </r>
       <r>  -14.8652    1.0000 </r>
       <r>  -13.9658    1.0000 </r>
       <r>  -13.9658    1.0000 </r>
       <r>  -13.7606    1.0000 </r>
       <r>  -13.7606    1.0000 </r>
       <r>  -12.7089    1.0000 </r>
       <r>  -12.7089    1.0000 </r>
       <r>  -12.2383    1.0000 </r>
       <r>  -11.8982    1.0000 </r>
       <r>  -11.8775    1.0000 </r>
       <r>  -11.8775    1.0000 </r>
       <r>  -11.7471    1.0000 </r>
       <r>  -11.7471    1.0000 </r>
       <r>  -11.1444    1.0000 </r>
       <r>  -10.8134    1.0000 </r>
       <r>  -10.8134    1.0000 </r>
       <r>  -10.6301    1.0000 </r>
       <r>  -10.3956    1.0000 </r>
       <r>    8.5728    0.0000 </r>
       <r>    9.7659    0.0000 </r>
       <r>    9.7659    0.0000 </r>
       <r>    9.8787    0.0000 </r>
       <r>   10.7385    0.0000 </r>
       <r>   11.8713    0.0000 </r>
       <r>   11.8713    0.0000 </r>
       <r>   11.9521    0.0000 </r>
       <r>   11.9521    0.0000 </r>
       <r>   12.3327    0.0000 </r>
       <r>   12.3327    0.0000 </r>
       <r>   12.4929    0.0000 </r>
       <r>   12.4929    0.0000 </r>
       <r>   12.8985    0.0000 </r>
       <r>   13.5698    0.0000 </r>
       <r>   13.5706    0.0000 </r>
      </set>
      <set comment="kpoint 11">
       <r>  -17.4213    1.0000 </r>
       <r>  -16.6906    1.0000 </r>
       <r>  -16.3308    1.0000 </r>
       <r>  -16.3308    1.0000 </r>
       <r>  -15.6439    1.0000 </r>
       <r>  -15.6439    1.0000 </r>
       <r>  -14.1417    1.0000 </r>
       <r>  -13.6182    1.0000 </r>
       <r>  -13.6182    1.0000 </r>
       <r>  -13.3228    1.0000 </r>
       <r>  -13.3228    1.0000 </r>
       <r>  -13.0792    1.0000 </r>
       <r>  -13.0792    1.0000 </r>
       <r>  -12.7531    1.0000 </r>
       <r>  -12.1497    1.0000 </r>
       <r>  -12.1497    1.0000 </r>
       <r>  -11.7916    1.0000 </r>
       <r>  -11.4812    1.0000 </r>
       <r>  -11.4812    1.0000 </r>
       <r>  -11.4001    1.0000 </r>
       <r>  -10.9224    1.0000 </r>
       <r>  -10.9224    1.0000 </r>
       <r>  -10.4344    1.0000 </r>
       <r>  -10.3179    1.0000 </r>
       <r>    8.8437    0.0000 </r>
       <r>    9.9269    0.0000 </r>
       <r>   10.2468    0.0000 </r>
       <r>   10.2468    0.0000 </r>
       <r>   10.4616    0.0000 </r>
       <r>   11.7490    0.0000 </r>
       <r>   11.7490    0.0000 </r>
       <r>   11.9830    0.0000 </r>
       <r>   11.9830    0.0000 </r>
       <r>   12.2009    0.0000 </r>
       <r>   12.2009    0.0000 </r>
       <r>   12.3370    0.0000 </r>
       <r>   12.3370    0.0000 </r>
       <r>   12.5224    0.0000 </r>
       <r>   12.9786    0.0000 </r>
       <r>   12.9786    0.0000 </r>
      </set>
      <set comment="kpoint 12">
       <r>  -17.1130    1.0000 </r>
       <r>  -17.1130    1.0000 </r>
       <r>  -16.0401    1.0000 </r>
       <r>  -16.0401    1.0000 </r>
       <r>  -16.0401    1.0000 </r>
       <r>  -16.0401    1.0000 </r>
       <r>  -13.4184    1.0000 </r>
       <r>  -13.4184    1.0000 </r>
       <r>  -13.3876    1.0000 </r>
       <r>  -13.3876    1.0000 </r>
       <r>  -13.3876    1.0000 </r>
       <r>  -13.3876    1.0000 </r>
       <r>  -12.6993    1.0000 </r>
       <r>  -12.6993    1.0000 </r>
       <r>  -12.6993    1.0000 </r>
       <r>  -12.6993    1.0000 </r>
       <r>  -11.6216    1.0000 </r>
       <r>  -11.6216    1.0000 </r>
       <r>  -11.1503    1.0000 </r>
       <r>  -11.1503    1.0000 </r>
       <r>  -11.1503    1.0000 </r>
       <r>  -11.1503    1.0000 </r>
       <r>  -10.3237    1.0000 </r>
       <r>  -10.3237    1.0000 </r>
       <r>    9.2952    0.0000 </r>
       <r>    9.2952    0.0000 </r>
       <r>   10.9594    0.0000 </r>
       <r>   10.9594    0.0000 </r>
       <r>   10.9594    0.0000 </r>
       <r>   10.9594    0.0000 </r>
       <r>   11.3720    0.0000 </r>
       <r>   11.3720    0.0000 </r>
       <r>   12.1492    0.0000 </r>
       <r>   12.1492    0.0000 </r>
       <r>   12.1492    0.0000 </r>
       <r>   12.1492    0.0000 </r>
       <r>   12.5539    0.0000 </r>
       <r>   12.5539    0.0000 </r>
       <r>   12.5539    0.0000 </r>
       <r>   12.5539    0.0000 </r>
      </set>
      <set comment="kpoint 13">
       <r>  -17.3655    1.0000 </r>
       <r>  -16.2781    1.0000 </r>
       <r>  -16.2781    1.0000 </r>
       <r>  -15.2836    1.0000 </r>
       <r>  -15.2836    1.0000 </r>
       <r>  -14.3438    1.0000 </r>
       <r>  -14.3438    1.0000 </r>
       <r>  -14.3438    1.0000 </r>
       <r>  -14.3438    1.0000 </r>
       <r>  -13.5761    1.0000 </r>
       <r>  -13.5761    1.0000 </r>
       <r>  -12.1277    1.0000 </r>
       <r>  -12.1277    1.0000 </r>
       <r>  -12.1277    1.0000 </r>
       <r>  -12.1277    1.0000 </r>
       <r>  -11.8500    1.0000 </r>
       <r>  -11.7603    1.0000 </r>
       <r>  -11.4456    1.0000 </r>
       <r>  -11.4456    1.0000 </r>
       <r>  -10.7702    1.0000 </r>
       <r>  -10.7702    1.0000 </r>
       <r>  -10.7210    1.0000 </r>
       <r>  -10.7210    1.0000 </r>
       <r>  -10.4229    1.0000 </r>
       <r>    8.9248    0.0000 </r>
       <r>    9.9823    0.0000 </r>
       <r>   10.0264    0.0000 </r>
       <r>   10.0264    0.0000 </r>
       <r>   12.0150    0.0000 </r>
       <r>   12.0150    0.0000 </r>
       <r>   12.1703    0.0000 </r>
       <r>   12.1703    0.0000 </r>
       <r>   12.2641    0.0000 </r>
       <r>   12.2641    0.0000 </r>
       <r>   12.6055    0.0000 </r>
       <r>   12.6055    0.0000 </r>
       <r>   12.6055    0.0000 </r>
       <r>   12.6055    0.0000 </r>
       <r>   14.0880    0.0000 </r>
       <r>   14.0880    0.0000 </r>
      </set>
      <set comment="kpoint 14">
       <r>  -17.3036    1.0000 </r>
       <r>  -16.2197    1.0000 </r>
       <r>  -16.2197    1.0000 </r>
       <r>  -15.8859    1.0000 </r>
       <r>  -14.8961    1.0000 </r>
       <r>  -14.8961    1.0000 </r>
       <r>  -14.6157    1.0000 </r>
       <r>  -13.7408    1.0000 </r>
       <r>  -13.7408    1.0000 </r>
       <r>  -13.5297    1.0000 </r>
       <r>  -13.5297    1.0000 </r>
       <r>  -12.5192    1.0000 </r>
       <r>  -12.5192    1.0000 </r>
       <r>  -12.0568    1.0000 </r>
       <r>  -11.7278    1.0000 </r>
       <r>  -11.7278    1.0000 </r>
       <r>  -11.7260    1.0000 </r>
       <r>  -11.5976    1.0000 </r>
       <r>  -11.5976    1.0000 </r>
       <r>  -11.0177    1.0000 </r>
       <r>  -10.7384    1.0000 </r>
       <r>  -10.7384    1.0000 </r>
       <r>  -10.5422    1.0000 </r>
       <r>  -10.3612    1.0000 </r>
       <r>    9.0151    0.0000 </r>
       <r>   10.1700    0.0000 </r>
       <r>   10.1799    0.0000 </r>
       <r>   10.1799    0.0000 </r>
       <r>   11.1799    0.0000 </r>
       <r>   12.0484    0.0000 </r>
       <r>   12.0484    0.0000 </r>
       <r>   12.3114    0.0000 </r>
       <r>   12.3114    0.0000 </r>
       <r>   12.4747    0.0000 </r>
       <r>   12.4747    0.0000 </r>
       <r>   12.5607    0.0000 </r>
       <r>   12.5607    0.0000 </r>
       <r>   13.3388    0.0000 </r>
       <r>   13.3557    0.0000 </r>
       <r>   13.3557    0.0000 </r>
      </set>
      <set comment="kpoint 15">
       <r>  -17.1193    1.0000 </r>
       <r>  -16.4018    1.0000 </r>
       <r>  -16.0461    1.0000 </r>
       <r>  -16.0461    1.0000 </r>
       <r>  -15.3744    1.0000 </r>
       <r>  -15.3744    1.0000 </r>
       <r>  -13.9104    1.0000 </r>
       <r>  -13.3924    1.0000 </r>
       <r>  -13.3924    1.0000 </r>
       <r>  -13.1181    1.0000 </r>
       <r>  -13.1181    1.0000 </r>
       <r>  -12.8739    1.0000 </r>
       <r>  -12.8739    1.0000 </r>
       <r>  -12.5597    1.0000 </r>
       <r>  -11.9864    1.0000 </r>
       <r>  -11.9864    1.0000 </r>
       <r>  -11.6253    1.0000 </r>
       <r>  -11.3540    1.0000 </r>
       <r>  -11.3540    1.0000 </r>
       <r>  -11.2568    1.0000 </r>
       <r>  -10.8346    1.0000 </r>
       <r>  -10.8346    1.0000 </r>
       <r>  -10.3654    1.0000 </r>
       <r>  -10.2758    1.0000 </r>
       <r>    9.2859    0.0000 </r>
       <r>   10.3687    0.0000 </r>
       <r>   10.6160    0.0000 </r>
       <r>   10.6160    0.0000 </r>
       <r>   10.7118    0.0000 </r>
       <r>   11.9803    0.0000 </r>
       <r>   11.9803    0.0000 </r>
       <r>   12.1428    0.0000 </r>
       <r>   12.1428    0.0000 </r>
       <r>   12.4344    0.0000 </r>
       <r>   12.4344    0.0000 </r>
       <r>   12.4422    0.0000 </r>
       <r>   12.4422    0.0000 </r>
       <r>   12.5793    0.0000 </r>
       <r>   12.8822    0.0000 </r>
       <r>   12.8822    0.0000 </r>
      </set>
      <set comment="kpoint 16">
       <r>  -16.8164    1.0000 </r>
       <r>  -16.8164    1.0000 </r>
       <r>  -15.7617    1.0000 </r>
       <r>  -15.7617    1.0000 </r>
       <r>  -15.7617    1.0000 </r>
       <r>  -15.7617    1.0000 </r>
       <r>  -13.2068    1.0000 </r>
       <r>  -13.2068    1.0000 </r>
       <r>  -13.1702    1.0000 </r>
       <r>  -13.1702    1.0000 </r>
       <r>  -13.1702    1.0000 </r>
       <r>  -13.1702    1.0000 </r>
       <r>  -12.5161    1.0000 </r>
       <r>  -12.5161    1.0000 </r>
       <r>  -12.5161    1.0000 </r>
       <r>  -12.5161    1.0000 </r>
       <r>  -11.4650    1.0000 </r>
       <r>  -11.4650    1.0000 </r>
       <r>  -11.0446    1.0000 </r>
       <r>  -11.0446    1.0000 </r>
       <r>  -11.0446    1.0000 </r>
       <r>  -11.0446    1.0000 </r>
       <r>  -10.2705    1.0000 </r>
       <r>  -10.2705    1.0000 </r>
       <r>    9.7372    0.0000 </r>
       <r>    9.7372    0.0000 </r>
       <r>   11.2620    0.0000 </r>
       <r>   11.2620    0.0000 </r>
       <r>   11.2620    0.0000 </r>
       <r>   11.2620    0.0000 </r>
       <r>   11.5466    0.0000 </r>
       <r>   11.5466    0.0000 </r>
       <r>   12.2812    0.0000 </r>
       <r>   12.2812    0.0000 </r>
       <r>   12.2812    0.0000 </r>
       <r>   12.2812    0.0000 </r>
       <r>   12.6311    0.0000 </r>
       <r>   12.6311    0.0000 </r>
       <r>   12.6311    0.0000 </r>
       <r>   12.6311    0.0000 </r>
      </set>
      <set comment="kpoint 17">
       <r>  -16.9454    1.0000 </r>
       <r>  -15.8827    1.0000 </r>
       <r>  -15.8827    1.0000 </r>
       <r>  -14.9246    1.0000 </r>
       <r>  -14.9246    1.0000 </r>
       <r>  -14.0182    1.0000 </r>
       <r>  -14.0182    1.0000 </r>
       <r>  -14.0182    1.0000 </r>
       <r>  -14.0182    1.0000 </r>
       <r>  -13.2641    1.0000 </r>
       <r>  -13.2641    1.0000 </r>
       <r>  -11.9072    1.0000 </r>
       <r>  -11.9072    1.0000 </r>
       <r>  -11.9072    1.0000 </r>
       <r>  -11.9072    1.0000 </r>
       <r>  -11.6154    1.0000 </r>
       <r>  -11.5321    1.0000 </r>
       <r>  -11.2609    1.0000 </r>
       <r>  -11.2609    1.0000 </r>
       <r>  -10.6485    1.0000 </r>
       <r>  -10.6485    1.0000 </r>
       <r>  -10.6399    1.0000 </r>
       <r>  -10.6399    1.0000 </r>
       <r>  -10.4091    1.0000 </r>
       <r>    9.5438    0.0000 </r>
       <r>   10.3653    0.0000 </r>
       <r>   10.6223    0.0000 </r>
       <r>   10.6223    0.0000 </r>
       <r>   12.2297    0.0000 </r>
       <r>   12.2297    0.0000 </r>
       <r>   12.5970    0.0000 </r>
       <r>   12.5970    0.0000 </r>
       <r>   12.5970    0.0000 </r>
       <r>   12.5970    0.0000 </r>
       <r>   12.7870    0.0000 </r>
       <r>   12.7870    0.0000 </r>
       <r>   12.8091    0.0000 </r>
       <r>   12.8091    0.0000 </r>
       <r>   13.6767    0.0000 </r>
       <r>   13.6767    0.0000 </r>
      </set>
      <set comment="kpoint 18">
       <r>  -16.8851    1.0000 </r>
       <r>  -15.8261    1.0000 </r>
       <r>  -15.8261    1.0000 </r>
       <r>  -15.5073    1.0000 </r>
       <r>  -14.5483    1.0000 </r>
       <r>  -14.5483    1.0000 </r>
       <r>  -14.2803    1.0000 </r>
       <r>  -13.4417    1.0000 </r>
       <r>  -13.4417    1.0000 </r>
       <r>  -13.2202    1.0000 </r>
       <r>  -13.2202    1.0000 </r>
       <r>  -12.2710    1.0000 </r>
       <r>  -12.2710    1.0000 </r>
       <r>  -11.8199    1.0000 </r>
       <r>  -11.5385    1.0000 </r>
       <r>  -11.5385    1.0000 </r>
       <r>  -11.5007    1.0000 </r>
       <r>  -11.4076    1.0000 </r>
       <r>  -11.4076    1.0000 </r>
       <r>  -10.8596    1.0000 </r>
       <r>  -10.6575    1.0000 </r>
       <r>  -10.6575    1.0000 </r>
       <r>  -10.4410    1.0000 </r>
       <r>  -10.3396    1.0000 </r>
       <r>    9.6341    0.0000 </r>
       <r>   10.5273    0.0000 </r>
       <r>   10.7458    0.0000 </r>
       <r>   10.7458    0.0000 </r>
       <r>   11.7974    0.0000 </r>
       <r>   12.2528    0.0000 </r>
       <r>   12.2528    0.0000 </r>
       <r>   12.5665    0.0000 </r>
       <r>   12.5665    0.0000 </r>
       <r>   12.5766    0.0000 </r>
       <r>   12.5766    0.0000 </r>
       <r>   12.7777    0.0000 </r>
       <r>   12.7777    0.0000 </r>
       <r>   13.0098    0.0000 </r>
       <r>   13.0098    0.0000 </r>
       <r>   13.3830    0.0000 </r>
      </set>
      <set comment="kpoint 19">
       <r>  -16.7056    1.0000 </r>
       <r>  -16.0077    1.0000 </r>
       <r>  -15.6580    1.0000 </r>
       <r>  -15.6580    1.0000 </r>
       <r>  -15.0089    1.0000 </r>
       <r>  -15.0089    1.0000 </r>
       <r>  -13.6023    1.0000 </r>
       <r>  -13.0905    1.0000 </r>
       <r>  -13.0905    1.0000 </r>
       <r>  -12.8490    1.0000 </r>
       <r>  -12.8490    1.0000 </r>
       <r>  -12.6027    1.0000 </r>
       <r>  -12.6027    1.0000 </r>
       <r>  -12.3070    1.0000 </r>
       <r>  -11.7774    1.0000 </r>
       <r>  -11.7774    1.0000 </r>
       <r>  -11.4087    1.0000 </r>
       <r>  -11.1973    1.0000 </r>
       <r>  -11.1973    1.0000 </r>
       <r>  -11.0744    1.0000 </r>
       <r>  -10.7348    1.0000 </r>
       <r>  -10.7348    1.0000 </r>
       <r>  -10.2916    1.0000 </r>
       <r>  -10.2414    1.0000 </r>
       <r>    9.9048    0.0000 </r>
       <r>   10.9868    0.0000 </r>
       <r>   10.9888    0.0000 </r>
       <r>   11.0962    0.0000 </r>
       <r>   11.0962    0.0000 </r>
       <r>   12.2322    0.0000 </r>
       <r>   12.2322    0.0000 </r>
       <r>   12.3169    0.0000 </r>
       <r>   12.3169    0.0000 </r>
       <r>   12.4975    0.0000 </r>
       <r>   12.4975    0.0000 </r>
       <r>   12.5108    0.0000 </r>
       <r>   12.6656    0.0000 </r>
       <r>   12.6656    0.0000 </r>
       <r>   12.7118    0.0000 </r>
       <r>   12.7118    0.0000 </r>
      </set>
      <set comment="kpoint 20">
       <r>  -16.4107    1.0000 </r>
       <r>  -16.4107    1.0000 </r>
       <r>  -15.3828    1.0000 </r>
       <r>  -15.3828    1.0000 </r>
       <r>  -15.3828    1.0000 </r>
       <r>  -15.3828    1.0000 </r>
       <r>  -12.9277    1.0000 </r>
       <r>  -12.9277    1.0000 </r>
       <r>  -12.8811    1.0000 </r>
       <r>  -12.8811    1.0000 </r>
       <r>  -12.8811    1.0000 </r>
       <r>  -12.8811    1.0000 </r>
       <r>  -12.2784    1.0000 </r>
       <r>  -12.2784    1.0000 </r>
       <r>  -12.2784    1.0000 </r>
       <r>  -12.2784    1.0000 </r>
       <r>  -11.2628    1.0000 </r>
       <r>  -11.2628    1.0000 </r>
       <r>  -10.9189    1.0000 </r>
       <r>  -10.9189    1.0000 </r>
       <r>  -10.9189    1.0000 </r>
       <r>  -10.9189    1.0000 </r>
       <r>  -10.2195    1.0000 </r>
       <r>  -10.2195    1.0000 </r>
       <r>   10.3557    0.0000 </r>
       <r>   10.3557    0.0000 </r>
       <r>   11.6194    0.0000 </r>
       <r>   11.6194    0.0000 </r>
       <r>   11.6194    0.0000 </r>
       <r>   11.6194    0.0000 </r>
       <r>   11.6820    0.0000 </r>
       <r>   11.6820    0.0000 </r>
       <r>   12.4062    0.0000 </r>
       <r>   12.4062    0.0000 </r>
       <r>   12.4062    0.0000 </r>
       <r>   12.4062    0.0000 </r>
       <r>   12.6616    0.0000 </r>
       <r>   12.6616    0.0000 </r>
       <r>   12.6616    0.0000 </r>
       <r>   12.6616    0.0000 </r>
      </set>
      <set comment="kpoint 21">
       <r>  -16.4207    1.0000 </r>
       <r>  -15.3920    1.0000 </r>
       <r>  -15.3920    1.0000 </r>
       <r>  -14.4860    1.0000 </r>
       <r>  -14.4860    1.0000 </r>
       <r>  -13.6255    1.0000 </r>
       <r>  -13.6255    1.0000 </r>
       <r>  -13.6255    1.0000 </r>
       <r>  -13.6255    1.0000 </r>
       <r>  -12.8872    1.0000 </r>
       <r>  -12.8872    1.0000 </r>
       <r>  -11.6567    1.0000 </r>
       <r>  -11.6567    1.0000 </r>
       <r>  -11.6567    1.0000 </r>
       <r>  -11.6567    1.0000 </r>
       <r>  -11.3406    1.0000 </r>
       <r>  -11.2658    1.0000 </r>
       <r>  -11.0558    1.0000 </r>
       <r>  -11.0558    1.0000 </r>
       <r>  -10.5984    1.0000 </r>
       <r>  -10.5984    1.0000 </r>
       <r>  -10.5074    1.0000 </r>
       <r>  -10.5074    1.0000 </r>
       <r>  -10.4395    1.0000 </r>
       <r>   10.3392    0.0000 </r>
       <r>   10.7612    0.0000 </r>
       <r>   11.3725    0.0000 </r>
       <r>   11.3725    0.0000 </r>
       <r>   12.3312    0.0000 </r>
       <r>   12.3312    0.0000 </r>
       <r>   12.3312    0.0000 </r>
       <r>   12.3312    0.0000 </r>
       <r>   12.4325    0.0000 </r>
       <r>   12.4325    0.0000 </r>
       <r>   13.2447    0.0000 </r>
       <r>   13.2447    0.0000 </r>
       <r>   13.2469    0.0000 </r>
       <r>   13.2644    0.0000 </r>
       <r>   13.4005    0.0000 </r>
       <r>   13.4524    0.0000 </r>
      </set>
      <set comment="kpoint 22">
       <r>  -16.3627    1.0000 </r>
       <r>  -15.3380    1.0000 </r>
       <r>  -15.3380    1.0000 </r>
       <r>  -15.0412    1.0000 </r>
       <r>  -14.1246    1.0000 </r>
       <r>  -14.1246    1.0000 </r>
       <r>  -13.8749    1.0000 </r>
       <r>  -13.0858    1.0000 </r>
       <r>  -13.0858    1.0000 </r>
       <r>  -12.8468    1.0000 </r>
       <r>  -12.8468    1.0000 </r>
       <r>  -11.9826    1.0000 </r>
       <r>  -11.9826    1.0000 </r>
       <r>  -11.5472    1.0000 </r>
       <r>  -11.3302    1.0000 </r>
       <r>  -11.3302    1.0000 </r>
       <r>  -11.2385    1.0000 </r>
       <r>  -11.1983    1.0000 </r>
       <r>  -11.1983    1.0000 </r>
       <r>  -10.6896    1.0000 </r>
       <r>  -10.5938    1.0000 </r>
       <r>  -10.5938    1.0000 </r>
       <r>  -10.3545    1.0000 </r>
       <r>  -10.3473    1.0000 </r>
       <r>   10.4294    0.0000 </r>
       <r>   10.8736    0.0000 </r>
       <r>   11.4306    0.0000 </r>
       <r>   11.4306    0.0000 </r>
       <r>   12.2704    0.0000 </r>
       <r>   12.2704    0.0000 </r>
       <r>   12.3917    0.0000 </r>
       <r>   12.3917    0.0000 </r>
       <r>   12.4381    0.0000 </r>
       <r>   12.4381    0.0000 </r>
       <r>   12.5903    0.0000 </r>
       <r>   12.7674    0.0000 </r>
       <r>   12.8055    0.0000 </r>
       <r>   12.8055    0.0000 </r>
       <r>   13.2789    0.0000 </r>
       <r>   13.2789    0.0000 </r>
      </set>
      <set comment="kpoint 23">
       <r>  -16.1898    1.0000 </r>
       <r>  -15.5198    1.0000 </r>
       <r>  -15.1776    1.0000 </r>
       <r>  -15.1776    1.0000 </r>
       <r>  -14.5604    1.0000 </r>
       <r>  -14.5604    1.0000 </r>
       <r>  -13.2349    1.0000 </r>
       <r>  -12.7276    1.0000 </r>
       <r>  -12.7276    1.0000 </r>
       <r>  -12.5345    1.0000 </r>
       <r>  -12.5345    1.0000 </r>
       <r>  -12.2825    1.0000 </r>
       <r>  -12.2825    1.0000 </r>
       <r>  -12.0155    1.0000 </r>
       <r>  -11.5442    1.0000 </r>
       <r>  -11.5442    1.0000 </r>
       <r>  -11.1585    1.0000 </r>
       <r>  -11.0326    1.0000 </r>
       <r>  -11.0326    1.0000 </r>
       <r>  -10.8711    1.0000 </r>
       <r>  -10.6453    1.0000 </r>
       <r>  -10.6453    1.0000 </r>
       <r>  -10.2364    1.0000 </r>
       <r>  -10.2343    1.0000 </r>
       <r>   10.6998    0.0000 </r>
       <r>   11.1872    0.0000 </r>
       <r>   11.5980    0.0000 </r>
       <r>   11.5980    0.0000 </r>
       <r>   11.7807    0.0000 </r>
       <r>   12.1318    0.0000 </r>
       <r>   12.1318    0.0000 </r>
       <r>   12.1812    0.0000 </r>
       <r>   12.4367    0.0000 </r>
       <r>   12.4367    0.0000 </r>
       <r>   12.4499    0.0000 </r>
       <r>   12.4499    0.0000 </r>
       <r>   12.5741    0.0000 </r>
       <r>   12.5741    0.0000 </r>
       <r>   12.9392    0.0000 </r>
       <r>   12.9392    0.0000 </r>
      </set>
      <set comment="kpoint 24">
       <r>  -15.9064    1.0000 </r>
       <r>  -15.9064    1.0000 </r>
       <r>  -14.9156    1.0000 </r>
       <r>  -14.9156    1.0000 </r>
       <r>  -14.9156    1.0000 </r>
       <r>  -14.9156    1.0000 </r>
       <r>  -12.6004    1.0000 </r>
       <r>  -12.6004    1.0000 </r>
       <r>  -12.5360    1.0000 </r>
       <r>  -12.5360    1.0000 </r>
       <r>  -12.5360    1.0000 </r>
       <r>  -12.5360    1.0000 </r>
       <r>  -12.0068    1.0000 </r>
       <r>  -12.0068    1.0000 </r>
       <r>  -12.0068    1.0000 </r>
       <r>  -12.0068    1.0000 </r>
       <r>  -11.0325    1.0000 </r>
       <r>  -11.0325    1.0000 </r>
       <r>  -10.7951    1.0000 </r>
       <r>  -10.7951    1.0000 </r>
       <r>  -10.7951    1.0000 </r>
       <r>  -10.7951    1.0000 </r>
       <r>  -10.1921    1.0000 </r>
       <r>  -10.1921    1.0000 </r>
       <r>   11.1503    0.0000 </r>
       <r>   11.1503    0.0000 </r>
       <r>   11.6435    0.0000 </r>
       <r>   11.6435    0.0000 </r>
       <r>   11.8530    0.0000 </r>
       <r>   11.8530    0.0000 </r>
       <r>   11.8530    0.0000 </r>
       <r>   11.8530    0.0000 </r>
       <r>   12.4544    0.0000 </r>
       <r>   12.4544    0.0000 </r>
       <r>   12.4544    0.0000 </r>
       <r>   12.4544    0.0000 </r>
       <r>   12.6659    0.0000 </r>
       <r>   12.6659    0.0000 </r>
       <r>   12.6659    0.0000 </r>
       <r>   12.6659    0.0000 </r>
      </set>
      <set comment="kpoint 25">
       <r>  -15.8047    1.0000 </r>
       <r>  -14.8213    1.0000 </r>
       <r>  -14.8213    1.0000 </r>
       <r>  -13.9879    1.0000 </r>
       <r>  -13.9879    1.0000 </r>
       <r>  -13.1877    1.0000 </r>
       <r>  -13.1877    1.0000 </r>
       <r>  -13.1877    1.0000 </r>
       <r>  -13.1877    1.0000 </r>
       <r>  -12.4650    1.0000 </r>
       <r>  -12.4650    1.0000 </r>
       <r>  -11.4015    1.0000 </r>
       <r>  -11.4015    1.0000 </r>
       <r>  -11.4015    1.0000 </r>
       <r>  -11.4015    1.0000 </r>
       <r>  -11.0469    1.0000 </r>
       <r>  -10.9822    1.0000 </r>
       <r>  -10.8553    1.0000 </r>
       <r>  -10.8553    1.0000 </r>
       <r>  -10.6010    1.0000 </r>
       <r>  -10.6010    1.0000 </r>
       <r>  -10.5459    1.0000 </r>
       <r>  -10.3974    1.0000 </r>
       <r>  -10.3974    1.0000 </r>
       <r>   11.0575    0.0000 </r>
       <r>   11.3105    0.0000 </r>
       <r>   11.6948    0.0000 </r>
       <r>   11.6948    0.0000 </r>
       <r>   11.6948    0.0000 </r>
       <r>   11.6948    0.0000 </r>
       <r>   12.2240    0.0000 </r>
       <r>   12.2240    0.0000 </r>
       <r>   12.3703    0.0000 </r>
       <r>   12.3703    0.0000 </r>
       <r>   12.5735    0.0000 </r>
       <r>   12.5735    0.0000 </r>
       <r>   12.9012    0.0000 </r>
       <r>   12.9012    0.0000 </r>
       <r>   12.9012    0.0000 </r>
       <r>   12.9012    0.0000 </r>
      </set>
      <set comment="kpoint 26">
       <r>  -15.7497    1.0000 </r>
       <r>  -14.7708    1.0000 </r>
       <r>  -14.7708    1.0000 </r>
       <r>  -14.5055    1.0000 </r>
       <r>  -13.6450    1.0000 </r>
       <r>  -13.6450    1.0000 </r>
       <r>  -13.4223    1.0000 </r>
       <r>  -12.6975    1.0000 </r>
       <r>  -12.6975    1.0000 </r>
       <r>  -12.4293    1.0000 </r>
       <r>  -12.4293    1.0000 </r>
       <r>  -11.6781    1.0000 </r>
       <r>  -11.6781    1.0000 </r>
       <r>  -11.2718    1.0000 </r>
       <r>  -11.1291    1.0000 </r>
       <r>  -11.1291    1.0000 </r>
       <r>  -11.0007    1.0000 </r>
       <r>  -11.0007    1.0000 </r>
       <r>  -10.9603    1.0000 </r>
       <r>  -10.5715    1.0000 </r>
       <r>  -10.5715    1.0000 </r>
       <r>  -10.5320    1.0000 </r>
       <r>  -10.4252    1.0000 </r>
       <r>  -10.2857    1.0000 </r>
       <r>   11.0868    0.0000 </r>
       <r>   11.4005    0.0000 </r>
       <r>   11.5601    0.0000 </r>
       <r>   11.5601    0.0000 </r>
       <r>   11.9033    0.0000 </r>
       <r>   11.9033    0.0000 </r>
       <r>   11.9135    0.0000 </r>
       <r>   12.1008    0.0000 </r>
       <r>   12.1008    0.0000 </r>
       <r>   12.5488    0.0000 </r>
       <r>   12.5488    0.0000 </r>
       <r>   12.7080    0.0000 </r>
       <r>   12.7080    0.0000 </r>
       <r>   12.9424    0.0000 </r>
       <r>   13.2062    0.0000 </r>
       <r>   13.2062    0.0000 </r>
      </set>
      <set comment="kpoint 27">
       <r>  -15.5860    1.0000 </r>
       <r>  -14.9541    1.0000 </r>
       <r>  -14.6209    1.0000 </r>
       <r>  -14.6209    1.0000 </r>
       <r>  -14.0472    1.0000 </r>
       <r>  -14.0472    1.0000 </r>
[...]
       <r>  -11.4087    1.0000 </r>
       <r>  -11.2055    1.0000 </r>
       <r>  -11.2055    1.0000 </r>
       <r>  -11.1718    1.0000 </r>
       <r>  -11.1718    1.0000 </r>
       <r>  -10.5245    1.0000 </r>
       <r>  -10.5245    1.0000 </r>
       <r>  -10.5048    1.0000 </r>
       <r>  -10.5048    1.0000 </r>
       <r>  -10.4186    1.0000 </r>
       <r>  -10.4186    1.0000 </r>
       <r>  -10.3938    1.0000 </r>
       <r>  -10.3938    1.0000 </r>
       <r>    9.6332    0.0000 </r>
       <r>    9.6332    0.0000 </r>
       <r>    9.8308    0.0000 </r>
       <r>    9.8308    0.0000 </r>
       <r>   10.3364    0.0000 </r>
       <r>   10.3364    0.0000 </r>
       <r>   10.4385    0.0000 </r>
       <r>   10.4385    0.0000 </r>
       <r>   10.6672    0.0000 </r>
       <r>   10.6672    0.0000 </r>
       <r>   11.0063    0.0000 </r>
       <r>   11.0063    0.0000 </r>
       <r>   11.3678    0.0000 </r>
       <r>   11.3678    0.0000 </r>
       <r>   11.4429    0.0000 </r>
       <r>   11.4429    0.0000 </r>
      </set>
      <set comment="kpoint 132">
       <r>  -12.4899    1.0000 </r>
       <r>  -12.4899    1.0000 </r>
       <r>  -12.4899    1.0000 </r>
       <r>  -12.4899    1.0000 </r>
       <r>  -11.9841    1.0000 </r>
       <r>  -11.9841    1.0000 </r>
       <r>  -11.9841    1.0000 </r>
       <r>  -11.9841    1.0000 </r>
       <r>  -11.4696    1.0000 </r>
       <r>  -11.4696    1.0000 </r>
       <r>  -11.4696    1.0000 </r>
       <r>  -11.4696    1.0000 </r>
       <r>  -11.1837    1.0000 </r>
       <r>  -11.1837    1.0000 </r>
       <r>  -11.1837    1.0000 </r>
       <r>  -11.1837    1.0000 </r>
       <r>  -10.4592    1.0000 </r>
       <r>  -10.4592    1.0000 </r>
       <r>  -10.4592    1.0000 </r>
       <r>  -10.4592    1.0000 </r>
       <r>  -10.4578    1.0000 </r>
       <r>  -10.4578    1.0000 </r>
       <r>  -10.4578    1.0000 </r>
       <r>  -10.4578    1.0000 </r>
       <r>   10.0842    0.0000 </r>
       <r>   10.0842    0.0000 </r>
       <r>   10.0842    0.0000 </r>
       <r>   10.0842    0.0000 </r>
       <r>   10.3627    0.0000 </r>
       <r>   10.3627    0.0000 </r>
       <r>   10.3627    0.0000 </r>
       <r>   10.3627    0.0000 </r>
       <r>   10.8012    0.0000 </r>
       <r>   10.8012    0.0000 </r>
       <r>   10.8012    0.0000 </r>
       <r>   10.8012    0.0000 </r>
       <r>   10.9125    0.0000 </r>
       <r>   10.9125    0.0000 </r>
       <r>   10.9125    0.0000 </r>
       <r>   10.9125    0.0000 </r>
      </set>
     </set>
    </set>
   </array>
  </eigenvalues>
  <separator name="orbital magnetization" >
   <v name="MAGDIPOLOUT">      0.00000000      0.00000000      0.00000000</v>
  </separator>
  <dos>
   <i name="efermi">    -10.10422207 </i>
   <total>
    <array>
     <dimension dim="1">gridpoints</dimension>
     <dimension dim="2">spin</dimension>
     <field>energy</field>
     <field>total</field>
     <field>integrated</field>
     <set>
      <set comment="spin 1">
       <r>   -19.5445     0.0000     0.0000 </r>
       <r>   -19.4254     0.0000     0.0000 </r>
       <r>   -19.3063     0.0000     0.0000 </r>
       <r>   -19.1872     0.0000     0.0000 </r>
       <r>   -19.0680     0.0000     0.0000 </r>
       <r>   -18.9489     0.0000     0.0000 </r>
       <r>   -18.8298     0.0000     0.0000 </r>
       <r>   -18.7107     0.0000     0.0000 </r>
       <r>   -18.5916     0.0000     0.0000 </r>
       <r>   -18.4724     0.0000     0.0000 </r>
       <r>   -18.3533     0.0000     0.0000 </r>
       <r>   -18.2342     0.0000     0.0000 </r>
       <r>   -18.1151     0.0000     0.0000 </r>
       <r>   -17.9960     0.0000     0.0000 </r>
       <r>   -17.8768     0.0337     0.0040 </r>
       <r>   -17.7577     0.3997     0.0754 </r>
       <r>   -17.6386     0.1509     0.1251 </r>
       <r>   -17.5195     0.9492     0.2916 </r>
       <r>   -17.4004     0.1411     0.3382 </r>
       <r>   -17.2812     1.3845     0.5419 </r>
       <r>   -17.1621     0.9092     0.6599 </r>
       <r>   -17.0430     0.9822     0.8273 </r>
       <r>   -16.9239     0.6403     1.0088 </r>
       <r>   -16.8048     1.4407     1.1994 </r>
       <r>   -16.6856     1.2764     1.4100 </r>
       <r>   -16.5665     1.1808     1.6526 </r>
       <r>   -16.4474     1.0816     1.8312 </r>
       <r>   -16.3283     1.4110     2.0847 </r>
       <r>   -16.2092     1.6916     2.3642 </r>
       <r>   -16.0900     2.5565     2.7133 </r>
       <r>   -15.9709     0.8964     2.8806 </r>
       <r>   -15.8518     1.6166     3.1092 </r>
       <r>   -15.7327     2.1096     3.5330 </r>
       <r>   -15.6135     2.3479     3.8630 </r>
       <r>   -15.4944     1.2032     4.0759 </r>
       <r>   -15.3753     1.2896     4.4274 </r>
       <r>   -15.2562     2.5537     4.8637 </r>
       <r>   -15.1371     1.4595     5.1937 </r>
       <r>   -15.0179     2.1745     5.4932 </r>
       <r>   -14.8988     1.8967     5.8966 </r>
       <r>   -14.7797     3.4136     6.4106 </r>
       <r>   -14.6606     1.8460     6.7556 </r>
       <r>   -14.5415     2.7520     7.2286 </r>
       <r>   -14.4223     2.2027     7.6394 </r>
       <r>   -14.3032     2.1698     8.0323 </r>
       <r>   -14.1841     2.7476     8.5614 </r>
       <r>   -14.0650     3.7967     9.1308 </r>
       <r>   -13.9459     2.6934     9.6026 </r>
       <r>   -13.8267     2.8735    10.1399 </r>
       <r>   -13.7076     2.6686    10.6711 </r>
       <r>   -13.5885     2.1494    11.1330 </r>
       <r>   -13.4694     5.5072    12.0092 </r>
       <r>   -13.3503     3.9584    12.6183 </r>
       <r>   -13.2311     2.9711    13.0880 </r>
       <r>   -13.1120     4.9464    13.8551 </r>
       <r>   -12.9929     5.1458    14.7042 </r>
       <r>   -12.8738     4.7045    15.3183 </r>
       <r>   -12.7547     4.7894    16.1221 </r>
       <r>   -12.6355     4.1846    16.9072 </r>
       <r>   -12.5164     6.7422    17.9182 </r>
       <r>   -12.3973     6.7868    19.0188 </r>
       <r>   -12.2782     6.0863    19.8798 </r>
       <r>   -12.1591     6.5256    21.1226 </r>
       <r>   -12.0399     7.6883    22.3762 </r>
       <r>   -11.9208     9.6660    23.9808 </r>
       <r>   -11.8017     6.8127    25.2679 </r>
       <r>   -11.6826     8.4211    26.5944 </r>
       <r>   -11.5634     8.7223    28.0509 </r>
       <r>   -11.4443     8.2716    29.4972 </r>
       <r>   -11.3252     8.0616    31.0436 </r>
       <r>   -11.2061     8.5481    32.3794 </r>
       <r>   -11.0870     8.8795    33.9982 </r>
       <r>   -10.9678     9.5178    35.6615 </r>
       <r>   -10.8487     8.5301    37.2185 </r>
       <r>   -10.7296     9.9295    38.9487 </r>
       <r>   -10.6105    11.3104    40.9465 </r>
       <r>   -10.4914    15.0672    43.4496 </r>
       <r>   -10.3722    14.6945    46.1472 </r>
       <r>   -10.2531     6.4045    47.7153 </r>
       <r>   -10.1340     0.5330    48.0000 </r>
       <r>   -10.0149     0.0000    48.0000 </r>
       <r>    -9.8958     0.0000    48.0000 </r>
       <r>    -9.7766     0.0000    48.0000 </r>
       <r>    -9.6575     0.0000    48.0000 </r>
       <r>    -9.5384     0.0000    48.0000 </r>
       <r>    -9.4193     0.0000    48.0000 </r>
       <r>    -9.3002     0.0000    48.0000 </r>
       <r>    -9.1810     0.0000    48.0000 </r>
       <r>    -9.0619     0.0000    48.0000 </r>
       <r>    -8.9428     0.0000    48.0000 </r>
       <r>    -8.8237     0.0000    48.0000 </r>
       <r>    -8.7046     0.0000    48.0000 </r>
       <r>    -8.5854     0.0000    48.0000 </r>
       <r>    -8.4663     0.0000    48.0000 </r>
       <r>    -8.3472     0.0000    48.0000 </r>
       <r>    -8.2281     0.0000    48.0000 </r>
       <r>    -8.1090     0.0000    48.0000 </r>
       <r>    -7.9898     0.0000    48.0000 </r>
       <r>    -7.8707     0.0000    48.0000 </r>
       <r>    -7.7516     0.0000    48.0000 </r>
       <r>    -7.6325     0.0000    48.0000 </r>
       <r>    -7.5134     0.0000    48.0000 </r>
       <r>    -7.3942     0.0000    48.0000 </r>
       <r>    -7.2751     0.0000    48.0000 </r>
       <r>    -7.1560     0.0000    48.0000 </r>
       <r>    -7.0369     0.0000    48.0000 </r>
       <r>    -6.9177     0.0000    48.0000 </r>
       <r>    -6.7986     0.0000    48.0000 </r>
       <r>    -6.6795     0.0000    48.0000 </r>
       <r>    -6.5604     0.0000    48.0000 </r>
       <r>    -6.4413     0.0000    48.0000 </r>
       <r>    -6.3221     0.0000    48.0000 </r>
       <r>    -6.2030     0.0000    48.0000 </r>
       <r>    -6.0839     0.0000    48.0000 </r>
       <r>    -5.9648     0.0000    48.0000 </r>
       <r>    -5.8457     0.0000    48.0000 </r>
       <r>    -5.7265     0.0000    48.0000 </r>
       <r>    -5.6074     0.0000    48.0000 </r>
       <r>    -5.4883     0.0000    48.0000 </r>
       <r>    -5.3692     0.0000    48.0000 </r>
       <r>    -5.2501     0.0000    48.0000 </r>
       <r>    -5.1309     0.0000    48.0000 </r>
       <r>    -5.0118     0.0000    48.0000 </r>
       <r>    -4.8927     0.0000    48.0000 </r>
       <r>    -4.7736     0.0000    48.0000 </r>
       <r>    -4.6545     0.0000    48.0000 </r>
       <r>    -4.5353     0.0000    48.0000 </r>
       <r>    -4.4162     0.0000    48.0000 </r>
       <r>    -4.2971     0.0000    48.0000 </r>
       <r>    -4.1780     0.0000    48.0000 </r>
       <r>    -4.0589     0.0000    48.0000 </r>
       <r>    -3.9397     0.0000    48.0000 </r>
       <r>    -3.8206     0.0000    48.0000 </r>
       <r>    -3.7015     0.0000    48.0000 </r>
       <r>    -3.5824     0.0000    48.0000 </r>
       <r>    -3.4633     0.0000    48.0000 </r>
       <r>    -3.3441     0.0000    48.0000 </r>
       <r>    -3.2250     0.0000    48.0000 </r>
       <r>    -3.1059     0.0000    48.0000 </r>
       <r>    -2.9868     0.0000    48.0000 </r>
       <r>    -2.8676     0.0000    48.0000 </r>
       <r>    -2.7485     0.0000    48.0000 </r>
       <r>    -2.6294     0.0000    48.0000 </r>
       <r>    -2.5103     0.0000    48.0000 </r>
       <r>    -2.3912     0.0000    48.0000 </r>
       <r>    -2.2720     0.0000    48.0000 </r>
       <r>    -2.1529     0.0000    48.0000 </r>
       <r>    -2.0338     0.0000    48.0000 </r>
       <r>    -1.9147     0.0000    48.0000 </r>
       <r>    -1.7956     0.0000    48.0000 </r>
       <r>    -1.6764     0.0000    48.0000 </r>
       <r>    -1.5573     0.0000    48.0000 </r>
       <r>    -1.4382     0.0000    48.0000 </r>
       <r>    -1.3191     0.0000    48.0000 </r>
       <r>    -1.2000     0.0000    48.0000 </r>
       <r>    -1.0808     0.0000    48.0000 </r>
       <r>    -0.9617     0.0000    48.0000 </r>
       <r>    -0.8426     0.0000    48.0000 </r>
       <r>    -0.7235     0.0000    48.0000 </r>
       <r>    -0.6044     0.0000    48.0000 </r>
       <r>    -0.4852     0.0000    48.0000 </r>
       <r>    -0.3661     0.0000    48.0000 </r>
       <r>    -0.2470     0.0000    48.0000 </r>
       <r>    -0.1279     0.0000    48.0000 </r>
       <r>    -0.0088     0.0000    48.0000 </r>
       <r>     0.1104     0.0000    48.0000 </r>
       <r>     0.2295     0.0000    48.0000 </r>
       <r>     0.3486     0.0000    48.0000 </r>
       <r>     0.4677     0.0000    48.0000 </r>
       <r>     0.5868     0.0000    48.0000 </r>
       <r>     0.7060     0.0000    48.0000 </r>
       <r>     0.8251     0.0000    48.0000 </r>
       <r>     0.9442     0.0000    48.0000 </r>
       <r>     1.0633     0.0000    48.0000 </r>
       <r>     1.1825     0.0000    48.0000 </r>
       <r>     1.3016     0.0000    48.0000 </r>
       <r>     1.4207     0.0000    48.0000 </r>
       <r>     1.5398     0.0000    48.0000 </r>
       <r>     1.6589     0.0000    48.0000 </r>
       <r>     1.7781     0.0000    48.0000 </r>
       <r>     1.8972     0.0000    48.0000 </r>
       <r>     2.0163     0.0000    48.0000 </r>
       <r>     2.1354     0.0000    48.0000 </r>
       <r>     2.2545     0.0000    48.0000 </r>
       <r>     2.3737     0.0000    48.0000 </r>
       <r>     2.4928     0.0000    48.0000 </r>
       <r>     2.6119     0.0000    48.0000 </r>
       <r>     2.7310     0.0000    48.0000 </r>
       <r>     2.8501     0.0000    48.0000 </r>
       <r>     2.9693     0.0000    48.0000 </r>
       <r>     3.0884     0.0000    48.0000 </r>
       <r>     3.2075     0.0000    48.0000 </r>
       <r>     3.3266     0.0000    48.0000 </r>
       <r>     3.4457     0.0000    48.0000 </r>
       <r>     3.5649     0.0000    48.0000 </r>
       <r>     3.6840     0.0000    48.0000 </r>
       <r>     3.8031     0.0000    48.0000 </r>
       <r>     3.9222     0.0000    48.0000 </r>
       <r>     4.0413     0.0000    48.0000 </r>
       <r>     4.1605     0.0000    48.0000 </r>
       <r>     4.2796     0.0000    48.0000 </r>
       <r>     4.3987     0.0000    48.0000 </r>
       <r>     4.5178     0.0000    48.0000 </r>
       <r>     4.6369     0.0000    48.0000 </r>
       <r>     4.7561     0.0000    48.0000 </r>
       <r>     4.8752     0.0000    48.0000 </r>
       <r>     4.9943     0.0000    48.0000 </r>
       <r>     5.1134     0.0000    48.0000 </r>
       <r>     5.2325     0.0000    48.0000 </r>
       <r>     5.3517     0.0000    48.0000 </r>
       <r>     5.4708     0.0000    48.0000 </r>
       <r>     5.5899     0.0000    48.0000 </r>
       <r>     5.7090     0.0000    48.0000 </r>
       <r>     5.8282     0.0000    48.0000 </r>
       <r>     5.9473     0.0000    48.0000 </r>
       <r>     6.0664     0.0000    48.0000 </r>
       <r>     6.1855     0.0000    48.0000 </r>
       <r>     6.3046     0.0000    48.0000 </r>
       <r>     6.4238     0.0000    48.0000 </r>
       <r>     6.5429     0.0000    48.0000 </r>
       <r>     6.6620     0.0000    48.0000 </r>
       <r>     6.7811     0.0000    48.0000 </r>
       <r>     6.9002     0.0000    48.0000 </r>
       <r>     7.0194     0.0000    48.0000 </r>
       <r>     7.1385     0.0000    48.0000 </r>
       <r>     7.2576     0.0000    48.0000 </r>
       <r>     7.3767     0.0000    48.0000 </r>
       <r>     7.4958     0.0000    48.0000 </r>
       <r>     7.6150     0.0000    48.0000 </r>
       <r>     7.7341     0.0000    48.0000 </r>
       <r>     7.8532     0.0000    48.0000 </r>
       <r>     7.9723     0.0000    48.0000 </r>
       <r>     8.0914     0.0000    48.0000 </r>
       <r>     8.2106     0.0203    48.0064 </r>
       <r>     8.3297     0.1331    48.0357 </r>
       <r>     8.4488     0.0667    48.0437 </r>
       <r>     8.5679     0.3292    48.1225 </r>
       <r>     8.6870     0.0000    48.1548 </r>
       <r>     8.8062     0.2862    48.1889 </r>
       <r>     8.9253     0.0359    48.2701 </r>
       <r>     9.0444     0.2639    48.3132 </r>
       <r>     9.1635     0.2032    48.3694 </r>
       <r>     9.2826     1.4569    48.5585 </r>
       <r>     9.4018     1.2023    48.8535 </r>
       <r>     9.5209     2.8695    49.3021 </r>
       <r>     9.6400     3.0011    49.8178 </r>
       <r>     9.7591     2.8225    50.3441 </r>
       <r>     9.8783     3.1975    50.8650 </r>
       <r>     9.9974     2.1288    51.2615 </r>
       <r>    10.1165     4.2591    51.9756 </r>
       <r>    10.2356     3.4932    52.7098 </r>
       <r>    10.3547     2.8994    53.2422 </r>
       <r>    10.4739     4.9433    54.0650 </r>
       <r>    10.5930     3.9258    54.6899 </r>
       <r>    10.7121     2.7552    55.3361 </r>
       <r>    10.8312     5.0390    56.1320 </r>
       <r>    10.9503     4.9057    57.1399 </r>
       <r>    11.0695     5.4971    58.2580 </r>
       <r>    11.1886     5.0306    59.1469 </r>
       <r>    11.3077     5.8197    60.0504 </r>
       <r>    11.4268     6.7734    61.1243 </r>
       <r>    11.5459     4.6820    62.0022 </r>
       <r>    11.6651     8.6008    63.3182 </r>
       <r>    11.7842     6.0570    64.4358 </r>
       <r>    11.9033     7.1977    65.7145 </r>
       <r>    12.0224     5.1783    66.8152 </r>
       <r>    12.1415     7.1940    68.1030 </r>
       <r>    12.2607     9.1890    69.5152 </r>
       <r>    12.3798     6.2632    70.6747 </r>
       <r>    12.4989     9.5754    72.1168 </r>
       <r>    12.6180     6.3354    73.3817 </r>
       <r>    12.7371     5.2117    74.2875 </r>
       <r>    12.8563     4.9198    75.0622 </r>
       <r>    12.9754     2.8785    75.5334 </r>
       <r>    13.0945     2.7806    76.0931 </r>
       <r>    13.2136     3.3037    76.7348 </r>
       <r>    13.3327     8.6156    78.0184 </r>
       <r>    13.4519     1.7910    78.4514 </r>
       <r>    13.5710     1.7417    78.6678 </r>
       <r>    13.6901     1.6533    78.9112 </r>
       <r>    13.8092     1.3234    79.1894 </r>
       <r>    13.9283     1.4308    79.4006 </r>
       <r>    14.0475     1.1564    79.6536 </r>
       <r>    14.1666     1.2885    79.9154 </r>
       <r>    14.2857     0.0000    79.9444 </r>
       <r>    14.4048     0.1333    79.9603 </r>
       <r>    14.5240     0.0918    79.9871 </r>
       <r>    14.6431     0.0666    80.0000 </r>
       <r>    14.7622     0.0000    80.0000 </r>
       <r>    14.8813     0.0000    80.0000 </r>
       <r>    15.0004     0.0000    80.0000 </r>
       <r>    15.1196     0.0000    80.0000 </r>
       <r>    15.2387     0.0000    80.0000 </r>
       <r>    15.3578     0.0000    80.0000 </r>
       <r>    15.4769     0.0000    80.0000 </r>
       <r>    15.5960     0.0000    80.0000 </r>
       <r>    15.7152     0.0000    80.0000 </r>
       <r>    15.8343     0.0000    80.0000 </r>
       <r>    15.9534     0.0000    80.0000 </r>
       <r>    16.0725     0.0000    80.0000 </r>
       <r>    16.1916     0.0000    80.0000 </r>
      </set>
     </set>
    </array>
   </total>
  </dos>
 </calculation>
 <structure name="finalpos" >
  <crystal>
   <varray name="basis" >
    <v>       5.86288214       3.38493658       0.00000000 </v>
    <v>      -0.97714702       1.69246829       0.00000000 </v>
    <v>       0.00000000       0.00000000       9.56312345 </v>
   </varray>
   <i name="volume">    126.52321019 </i>
   <varray name="rec_basis" >
    <v>       0.12792343       0.07385663      -0.00000000 </v>
    <v>      -0.25584686       0.44313976       0.00000000 </v>
    <v>       0.00000000      -0.00000000       0.10456835 </v>
   </varray>
  </crystal>
  <varray name="positions" >
   <v>       0.08333333       0.50000000       0.08333333 </v>
   <v>       0.33333333       0.00000000       0.08333333 </v>
   <v>       0.58333333       0.50000000       0.08333333 </v>
   <v>       0.83333333       0.00000000       0.08333333 </v>
   <v>       0.08333333       0.50000000       0.41666667 </v>
   <v>       0.33333333       0.00000000       0.41666667 </v>
   <v>       0.58333333       0.50000000       0.41666667 </v>
   <v>       0.83333333       0.00000000       0.41666667 </v>
   <v>       0.08333333       0.50000000       0.75000000 </v>
   <v>       0.33333333       0.00000000       0.75000000 </v>
   <v>       0.58333333       0.50000000       0.75000000 </v>
   <v>       0.83333333       0.00000000       0.75000000 </v>
   <v>       0.16666667       0.00000000       0.25000000 </v>
   <v>       0.41666667       0.50000000       0.25000000 </v>
   <v>       0.66666667       0.00000000       0.25000000 </v>
   <v>       0.91666667       0.50000000       0.25000000 </v>
   <v>       0.16666667       0.00000000       0.58333333 </v>
   <v>       0.41666667       0.50000000       0.58333333 </v>
   <v>       0.66666667       0.00000000       0.58333333 </v>
   <v>       0.91666667       0.50000000       0.58333333 </v>
   <v>       0.16666667       0.00000000       0.91666667 </v>
   <v>       0.41666667       0.50000000       0.91666667 </v>
   <v>       0.66666667       0.00000000       0.91666667 </v>
   <v>       0.91666667       0.50000000       0.91666667 </v>
  </varray>
 </structure>
</modeling>
