<?xml version="1.0" encoding="ISO-8859-1"?>
<modeling>
 <generator>
  <i name="program" type="string">vasp </i>
  <i name="version" type="string">6.4.3  </i>
  <i name="subversion" type="string">19Mar24 (build Jun 20 2024 15:56:09) complex                          parallel </i>
  <i name="platform" type="string">LinuxNV_CrayMPICH </i>
  <i name="date" type="string">2025 01 07 </i>
  <i name="time" type="string">18:38:42 </i>
 </generator>
 <incar>
  <i type="string" name="PREC">Accurate</i>
  <i type="int" name="IBRION">    -1</i>
  <i name="EDIFF">      0.00000001</i>
  <i type="int" name="NSW">     0</i>
  <i name="ENCUT">    500.00000000</i>
  <i type="logical" name="LREAL"> F  </i>
  <i type="int" name="ISMEAR">     0</i>
  <i name="SIGMA">      0.01000000</i>
  <i type="logical" name="LWAVE"> F  </i>
  <i type="logical" name="LCHARG"> F  </i>
 </incar>
 <primitive_cell>
  <structure name="primitive_cell" >
   <crystal>
    <varray name="basis" >
     <v>       8.28739668       0.00000000       0.00000000 </v>
     <v>      -4.14369834       8.28739668       0.00000000 </v>
     <v>       0.00000000       0.00000000       4.14369834 </v>
    </varray>
    <i name="volume">    284.59311253 </i>
    <varray name="rec_basis" >
     <v>       0.12066515       0.06033258      -0.00000000 </v>
     <v>       0.00000000       0.12066515       0.00000000 </v>
     <v>      -0.00000000      -0.00000000       0.24133031 </v>
    </varray>
   </crystal>
   <varray name="positions" >
    <v>       1.00000000       0.00098523       0.00098523 </v>
    <v>       0.50000000       0.00000000       1.00000000 </v>
    <v>       0.25000000       0.50000000       0.00000000 </v>
    <v>       0.75000000       0.50000000       0.00000000 </v>
    <v>       0.37500000       0.25000000       0.50000000 </v>
    <v>       0.87500000       0.25000000       0.50000000 </v>
    <v>       0.62500000       0.75000000       0.50000000 </v>
    <v>       0.12500000       0.75000000       0.50000000 </v>
   </varray>
  </structure>
  <varray name="primitive_index" >
   <v type="int" >        1 </v>
   <v type="int" >        2 </v>
   <v type="int" >        3 </v>
   <v type="int" >        4 </v>
   <v type="int" >        5 </v>
   <v type="int" >        6 </v>
   <v type="int" >        7 </v>
   <v type="int" >        8 </v>
  </varray>
 </primitive_cell>
 <kpoints>
  <generation param="Gamma">
   <v type="int" name="divisions">       6        5       10 </v>
   <v name="usershift">      0.00000000       0.00000000       0.00000000 </v>
   <v name="genvec1">      0.16666667      -0.00000000       0.00000000 </v>
   <v name="genvec2">      0.00000000       0.20000000       0.00000000 </v>
   <v name="genvec3">     -0.00000000       0.00000000       0.10000000 </v>
   <v name="shift">      0.00000000       0.00000000       0.00000000 </v>
  </generation>
  <varray name="kpointlist" >
   <v>       0.00000000       0.00000000       0.00000000 </v>
   <v>       0.16666667       0.00000000       0.00000000 </v>
   <v>       0.33333333       0.00000000       0.00000000 </v>
   <v>       0.50000000       0.00000000       0.00000000 </v>
   <v>       0.00000000       0.20000000       0.00000000 </v>
   <v>       0.16666667       0.20000000       0.00000000 </v>
   <v>       0.33333333       0.20000000       0.00000000 </v>
   <v>       0.50000000       0.20000000       0.00000000 </v>
   <v>      -0.33333333       0.20000000       0.00000000 </v>
   <v>      -0.16666667       0.20000000       0.00000000 </v>
   <v>       0.00000000       0.40000000       0.00000000 </v>
   <v>       0.16666667       0.40000000       0.00000000 </v>
   <v>       0.33333333       0.40000000       0.00000000 </v>
   <v>       0.50000000       0.40000000       0.00000000 </v>
   <v>      -0.33333333       0.40000000       0.00000000 </v>
   <v>      -0.16666667       0.40000000       0.00000000 </v>
   <v>       0.00000000       0.00000000       0.10000000 </v>
   <v>       0.16666667       0.00000000       0.10000000 </v>
   <v>       0.33333333       0.00000000       0.10000000 </v>
   <v>       0.50000000       0.00000000       0.10000000 </v>
   <v>      -0.33333333       0.00000000       0.10000000 </v>
   <v>      -0.16666667       0.00000000       0.10000000 </v>
   <v>       0.00000000       0.20000000       0.10000000 </v>
   <v>       0.16666667       0.20000000       0.10000000 </v>
   <v>       0.33333333       0.20000000       0.10000000 </v>
   <v>       0.50000000       0.20000000       0.10000000 </v>
   <v>      -0.33333333       0.20000000       0.10000000 </v>
   <v>      -0.16666667       0.20000000       0.10000000 </v>
   <v>       0.00000000       0.40000000       0.10000000 </v>
   <v>       0.16666667       0.40000000       0.10000000 </v>
   <v>       0.33333333       0.40000000       0.10000000 </v>
   <v>       0.50000000       0.40000000       0.10000000 </v>
   <v>      -0.33333333       0.40000000       0.10000000 </v>
   <v>      -0.16666667       0.40000000       0.10000000 </v>
   <v>       0.00000000      -0.40000000       0.10000000 </v>
   <v>       0.16666667      -0.40000000       0.10000000 </v>
   <v>       0.33333333      -0.40000000       0.10000000 </v>
   <v>       0.50000000      -0.40000000       0.10000000 </v>
   <v>      -0.33333333      -0.40000000       0.10000000 </v>
   <v>      -0.16666667      -0.40000000       0.10000000 </v>
   <v>       0.00000000      -0.20000000       0.10000000 </v>
   <v>       0.16666667      -0.20000000       0.10000000 </v>
   <v>       0.33333333      -0.20000000       0.10000000 </v>
   <v>       0.50000000      -0.20000000       0.10000000 </v>
   <v>      -0.33333333      -0.20000000       0.10000000 </v>
   <v>      -0.16666667      -0.20000000       0.10000000 </v>
   <v>       0.00000000       0.00000000       0.20000000 </v>
   <v>       0.16666667       0.00000000       0.20000000 </v>
   <v>       0.33333333       0.00000000       0.20000000 </v>
   <v>       0.50000000       0.00000000       0.20000000 </v>
   <v>      -0.33333333       0.00000000       0.20000000 </v>
   <v>      -0.16666667       0.00000000       0.20000000 </v>
   <v>       0.00000000       0.20000000       0.20000000 </v>
   <v>       0.16666667       0.20000000       0.20000000 </v>
   <v>       0.33333333       0.20000000       0.20000000 </v>
   <v>       0.50000000       0.20000000       0.20000000 </v>
   <v>      -0.33333333       0.20000000       0.20000000 </v>
   <v>      -0.16666667       0.20000000       0.20000000 </v>
   <v>       0.00000000       0.40000000       0.20000000 </v>
   <v>       0.16666667       0.40000000       0.20000000 </v>
   <v>       0.33333333       0.40000000       0.20000000 </v>
   <v>       0.50000000       0.40000000       0.20000000 </v>
   <v>      -0.33333333       0.40000000       0.20000000 </v>
   <v>      -0.16666667       0.40000000       0.20000000 </v>
   <v>       0.00000000      -0.40000000       0.20000000 </v>
   <v>       0.16666667      -0.40000000       0.20000000 </v>
   <v>       0.33333333      -0.40000000       0.20000000 </v>
   <v>       0.50000000      -0.40000000       0.20000000 </v>
   <v>      -0.33333333      -0.40000000       0.20000000 </v>
   <v>      -0.16666667      -0.40000000       0.20000000 </v>
   <v>       0.00000000      -0.20000000       0.20000000 </v>
   <v>       0.16666667      -0.20000000       0.20000000 </v>
   <v>       0.33333333      -0.20000000       0.20000000 </v>
   <v>       0.50000000      -0.20000000       0.20000000 </v>
   <v>      -0.33333333      -0.20000000       0.20000000 </v>
   <v>      -0.16666667      -0.20000000       0.20000000 </v>
   <v>       0.00000000       0.00000000       0.30000000 </v>
   <v>       0.16666667       0.00000000       0.30000000 </v>
   <v>       0.33333333       0.00000000       0.30000000 </v>
   <v>       0.50000000       0.00000000       0.30000000 </v>
   <v>      -0.33333333       0.00000000       0.30000000 </v>
   <v>      -0.16666667       0.00000000       0.30000000 </v>
   <v>       0.00000000       0.20000000       0.30000000 </v>
   <v>       0.16666667       0.20000000       0.30000000 </v>
   <v>       0.33333333       0.20000000       0.30000000 </v>
   <v>       0.50000000       0.20000000       0.30000000 </v>
   <v>      -0.33333333       0.20000000       0.30000000 </v>
   <v>      -0.16666667       0.20000000       0.30000000 </v>
   <v>       0.00000000       0.40000000       0.30000000 </v>
   <v>       0.16666667       0.40000000       0.30000000 </v>
   <v>       0.33333333       0.40000000       0.30000000 </v>
   <v>       0.50000000       0.40000000       0.30000000 </v>
   <v>      -0.33333333       0.40000000       0.30000000 </v>
   <v>      -0.16666667       0.40000000       0.30000000 </v>
   <v>       0.00000000      -0.40000000       0.30000000 </v>
   <v>       0.16666667      -0.40000000       0.30000000 </v>
   <v>       0.33333333      -0.40000000       0.30000000 </v>
   <v>       0.50000000      -0.40000000       0.30000000 </v>
   <v>      -0.33333333      -0.40000000       0.30000000 </v>
   <v>      -0.16666667      -0.40000000       0.30000000 </v>
   <v>       0.00000000      -0.20000000       0.30000000 </v>
   <v>       0.16666667      -0.20000000       0.30000000 </v>
   <v>       0.33333333      -0.20000000       0.30000000 </v>
   <v>       0.50000000      -0.20000000       0.30000000 </v>
   <v>      -0.33333333      -0.20000000       0.30000000 </v>
   <v>      -0.16666667      -0.20000000       0.30000000 </v>
   <v>       0.00000000       0.00000000       0.40000000 </v>
   <v>       0.16666667       0.00000000       0.40000000 </v>
   <v>       0.33333333       0.00000000       0.40000000 </v>
   <v>       0.50000000       0.00000000       0.40000000 </v>
   <v>      -0.33333333       0.00000000       0.40000000 </v>
   <v>      -0.16666667       0.00000000       0.40000000 </v>
   <v>       0.00000000       0.20000000       0.40000000 </v>
   <v>       0.16666667       0.20000000       0.40000000 </v>
   <v>       0.33333333       0.20000000       0.40000000 </v>
   <v>       0.50000000       0.20000000       0.40000000 </v>
   <v>      -0.33333333       0.20000000       0.40000000 </v>
   <v>      -0.16666667       0.20000000       0.40000000 </v>
   <v>       0.00000000       0.40000000       0.40000000 </v>
   <v>       0.16666667       0.40000000       0.40000000 </v>
   <v>       0.33333333       0.40000000       0.40000000 </v>
   <v>       0.50000000       0.40000000       0.40000000 </v>
   <v>      -0.33333333       0.40000000       0.40000000 </v>
   <v>      -0.16666667       0.40000000       0.40000000 </v>
   <v>       0.00000000      -0.40000000       0.40000000 </v>
   <v>       0.16666667      -0.40000000       0.40000000 </v>
   <v>       0.33333333      -0.40000000       0.40000000 </v>
   <v>       0.50000000      -0.40000000       0.40000000 </v>
   <v>      -0.33333333      -0.40000000       0.40000000 </v>
   <v>      -0.16666667      -0.40000000       0.40000000 </v>
   <v>       0.00000000      -0.20000000       0.40000000 </v>
   <v>       0.16666667      -0.20000000       0.40000000 </v>
   <v>       0.33333333      -0.20000000       0.40000000 </v>
   <v>       0.50000000      -0.20000000       0.40000000 </v>
   <v>      -0.33333333      -0.20000000       0.40000000 </v>
   <v>      -0.16666667      -0.20000000       0.40000000 </v>
   <v>       0.00000000       0.00000000       0.50000000 </v>
   <v>       0.16666667       0.00000000       0.50000000 </v>
   <v>       0.33333333       0.00000000       0.50000000 </v>
   <v>       0.50000000       0.00000000       0.50000000 </v>
   <v>       0.00000000       0.20000000       0.50000000 </v>
   <v>       0.16666667       0.20000000       0.50000000 </v>
   <v>       0.33333333       0.20000000       0.50000000 </v>
   <v>       0.50000000       0.20000000       0.50000000 </v>
   <v>      -0.33333333       0.20000000       0.50000000 </v>
   <v>      -0.16666667       0.20000000       0.50000000 </v>
   <v>       0.00000000       0.40000000       0.50000000 </v>
   <v>       0.16666667       0.40000000       0.50000000 </v>
   <v>       0.33333333       0.40000000       0.50000000 </v>
   <v>       0.50000000       0.40000000       0.50000000 </v>
   <v>      -0.33333333       0.40000000       0.50000000 </v>
   <v>      -0.16666667       0.40000000       0.50000000 </v>
  </varray>
  <varray name="weights" >
   <v>       0.00333333 </v>
   <v>       0.00666667 </v>
   <v>       0.00666667 </v>
   <v>       0.00333333 </v>
   <v>       0.00666667 </v>
   <v>       0.00666667 </v>
   <v>       0.00666667 </v>
   <v>       0.00666667 </v>
   <v>       0.00666667 </v>
   <v>       0.00666667 </v>
   <v>       0.00666667 </v>
   <v>       0.00666667 </v>
   <v>       0.00666667 </v>
   <v>       0.00666667 </v>
   <v>       0.00666667 </v>
   <v>       0.00666667 </v>
   <v>       0.00666667 </v>
   <v>       0.00666667 </v>
   <v>       0.00666667 </v>
   <v>       0.00666667 </v>
   <v>       0.00666667 </v>
   <v>       0.00666667 </v>
   <v>       0.00666667 </v>
   <v>       0.00666667 </v>
   <v>       0.00666667 </v>
   <v>       0.00666667 </v>
   <v>       0.00666667 </v>
   <v>       0.00666667 </v>
   <v>       0.00666667 </v>
   <v>       0.00666667 </v>
   <v>       0.00666667 </v>
   <v>       0.00666667 </v>
   <v>       0.00666667 </v>
   <v>       0.00666667 </v>
   <v>       0.00666667 </v>
   <v>       0.00666667 </v>
   <v>       0.00666667 </v>
   <v>       0.00666667 </v>
   <v>       0.00666667 </v>
   <v>       0.00666667 </v>
   <v>       0.00666667 </v>
   <v>       0.00666667 </v>
   <v>       0.00666667 </v>
   <v>       0.00666667 </v>
   <v>       0.00666667 </v>
   <v>       0.00666667 </v>
   <v>       0.00666667 </v>
   <v>       0.00666667 </v>
   <v>       0.00666667 </v>
   <v>       0.00666667 </v>
   <v>       0.00666667 </v>
   <v>       0.00666667 </v>
   <v>       0.00666667 </v>
   <v>       0.00666667 </v>
   <v>       0.00666667 </v>
   <v>       0.00666667 </v>
   <v>       0.00666667 </v>
   <v>       0.00666667 </v>
   <v>       0.00666667 </v>
   <v>       0.00666667 </v>
   <v>       0.00666667 </v>
   <v>       0.00666667 </v>
   <v>       0.00666667 </v>
   <v>       0.00666667 </v>
   <v>       0.00666667 </v>
   <v>       0.00666667 </v>
   <v>       0.00666667 </v>
   <v>       0.00666667 </v>
   <v>       0.00666667 </v>
   <v>       0.00666667 </v>
   <v>       0.00666667 </v>
   <v>       0.00666667 </v>
   <v>       0.00666667 </v>
   <v>       0.00666667 </v>
   <v>       0.00666667 </v>
   <v>       0.00666667 </v>
   <v>       0.00666667 </v>
   <v>       0.00666667 </v>
   <v>       0.00666667 </v>
   <v>       0.00666667 </v>
   <v>       0.00666667 </v>
   <v>       0.00666667 </v>
   <v>       0.00666667 </v>
   <v>       0.00666667 </v>
   <v>       0.00666667 </v>
   <v>       0.00666667 </v>
   <v>       0.00666667 </v>
   <v>       0.00666667 </v>
   <v>       0.00666667 </v>
   <v>       0.00666667 </v>
   <v>       0.00666667 </v>
   <v>       0.00666667 </v>
   <v>       0.00666667 </v>
   <v>       0.00666667 </v>
   <v>       0.00666667 </v>
   <v>       0.00666667 </v>
   <v>       0.00666667 </v>
   <v>       0.00666667 </v>
   <v>       0.00666667 </v>
   <v>       0.00666667 </v>
   <v>       0.00666667 </v>
   <v>       0.00666667 </v>
   <v>       0.00666667 </v>
   <v>       0.00666667 </v>
   <v>       0.00666667 </v>
   <v>       0.00666667 </v>
   <v>       0.00666667 </v>
   <v>       0.00666667 </v>
   <v>       0.00666667 </v>
   <v>       0.00666667 </v>
   <v>       0.00666667 </v>
   <v>       0.00666667 </v>
   <v>       0.00666667 </v>
   <v>       0.00666667 </v>
   <v>       0.00666667 </v>
   <v>       0.00666667 </v>
   <v>       0.00666667 </v>
   <v>       0.00666667 </v>
   <v>       0.00666667 </v>
   <v>       0.00666667 </v>
   <v>       0.00666667 </v>
   <v>       0.00666667 </v>
   <v>       0.00666667 </v>
   <v>       0.00666667 </v>
   <v>       0.00666667 </v>
   <v>       0.00666667 </v>
   <v>       0.00666667 </v>
   <v>       0.00666667 </v>
   <v>       0.00666667 </v>
   <v>       0.00666667 </v>
   <v>       0.00666667 </v>
   <v>       0.00666667 </v>
   <v>       0.00666667 </v>
   <v>       0.00666667 </v>
   <v>       0.00666667 </v>
   <v>       0.00666667 </v>
   <v>       0.00333333 </v>
   <v>       0.00666667 </v>
   <v>       0.00666667 </v>
   <v>       0.00333333 </v>
   <v>       0.00666667 </v>
   <v>       0.00666667 </v>
   <v>       0.00666667 </v>
   <v>       0.00666667 </v>
   <v>       0.00666667 </v>
   <v>       0.00666667 </v>
   <v>       0.00666667 </v>
   <v>       0.00666667 </v>
   <v>       0.00666667 </v>
   <v>       0.00666667 </v>
   <v>       0.00666667 </v>
   <v>       0.00666667 </v>
  </varray>
 </kpoints>
 <parameters>
  <separator name="general" >
   <i type="string" name="SYSTEM">unknown system</i>
   <i type="logical" name="LCOMPAT"> F  </i>
  </separator>
  <separator name="electronic" >
   <i type="string" name="PREC">accura</i>
   <i name="ENMAX">    500.00000000</i>
   <i name="ENAUG">    407.93300000</i>
   <i name="EDIFF">      0.00000001</i>
   <i type="int" name="IALGO">    38</i>
   <i type="int" name="IWAVPR">    10</i>
   <i type="int" name="NBANDS">    40</i>
   <i type="int" name="NBANDSLOW">    -1</i>
   <i type="int" name="NBANDSHIGH">    -1</i>
   <i name="NELECT">     64.00000000</i>
   <i type="int" name="TURBO">     0</i>
   <i type="int" name="IRESTART">     0</i>
   <i type="int" name="NREBOOT">     0</i>
   <i type="int" name="NMIN">     0</i>
   <i name="EREF">      0.00000000</i>
   <separator name="electronic smearing" >
    <i type="int" name="ISMEAR">     0</i>
    <i name="SIGMA">      0.01000000</i>
    <i name="KSPACING">      0.50000000</i>
    <i type="logical" name="KGAMMA"> T  </i>
    <i type="logical" name="KBLOWUP"> F  </i>
   </separator>
   <separator name="electronic projectors" >
    <i type="logical" name="LREAL"> F  </i>
    <v name="ROPT">      0.00000000      0.00000000</v>
    <i type="int" name="LMAXPAW">  -100</i>
    <i type="int" name="LMAXMIX">     2</i>
    <i type="logical" name="NLSPLINE"> F  </i>
   </separator>
   <separator name="electronic startup" >
    <i type="int" name="ISTART">     0</i>
    <i type="int" name="ICHARG">     2</i>
    <i type="int" name="INIWAV">     1</i>
   </separator>
   <separator name="electronic spin" >
    <i type="int" name="ISPIN">     1</i>
    <i type="logical" name="LNONCOLLINEAR"> F  </i>
    <v name="MAGMOM">      1.00000000      1.00000000      1.00000000      1.00000000      1.00000000      1.00000000      1.00000000      1.00000000</v>
    <i name="NUPDOWN">     -1.00000000</i>
    <i type="logical" name="LSORBIT"> F  </i>
    <v name="SAXIS">      0.00000000      0.00000000      1.00000000</v>
    <i type="logical" name="LSPIRAL"> F  </i>
    <v name="QSPIRAL">      0.00000000      0.00000000      0.00000000</v>
    <i type="logical" name="LZEROZ"> F  </i>
   </separator>
   <separator name="electronic exchange-correlation" >
    <i type="logical" name="LASPH"> F  </i>
   </separator>
   <separator name="electronic convergence" >
    <i type="int" name="NELM">    60</i>
    <i type="int" name="NELMDL">    -5</i>
    <i type="int" name="NELMIN">     2</i>
    <i name="ENINI">    500.00000000</i>
    <separator name="electronic convergence detail" >
     <i type="logical" name="LDIAG"> T  </i>
     <i type="logical" name="LSUBROT"> F  </i>
     <i name="WEIMIN">      0.00000000</i>
     <i name="EBREAK">      0.00000000</i>
     <i name="DEPER">      0.30000000</i>
     <i type="int" name="NRMM">     4</i>
     <i name="TIME">      0.40000000</i>
    </separator>
   </separator>
   <separator name="electronic mixer" >
    <i name="AMIX">      0.40000000</i>
    <i name="BMIX">      1.00000000</i>
    <i name="AMIN">      0.10000000</i>
    <i name="AMIX_MAG">      1.60000000</i>
    <i name="BMIX_MAG">      1.00000000</i>
    <separator name="electronic mixer details" >
     <i type="int" name="IMIX">     4</i>
     <i type="logical" name="MIXFIRST"> F  </i>
     <i type="int" name="MAXMIX">   -45</i>
     <i name="WC">    100.00000000</i>
     <i type="int" name="INIMIX">     1</i>
     <i type="int" name="MIXPRE">     1</i>
     <i type="int" name="MREMOVE">     5</i>
    </separator>
   </separator>
   <separator name="electronic dipolcorrection" >
    <i type="logical" name="LDIPOL"> F  </i>
    <i type="logical" name="LMONO"> F  </i>
    <i type="int" name="IDIPOL">     0</i>
    <i name="EPSILON">      1.00000000</i>
    <v name="DIPOL">   -100.00000000   -100.00000000   -100.00000000</v>
    <i name="EFIELD">      0.00000000</i>
    <i type="logical" name="LVACPOTAV"> F  </i>
   </separator>
  </separator>
  <separator name="grids" >
   <i type="int" name="NGX">    60</i>
   <i type="int" name="NGY">    70</i>
   <i type="int" name="NGZ">    30</i>
   <i type="int" name="NGXF">   120</i>
   <i type="int" name="NGYF">   140</i>
   <i type="int" name="NGZF">    60</i>
   <i type="logical" name="ADDGRID"> F  </i>
  </separator>
  <separator name="ionic" >
   <i type="int" name="NSW">     0</i>
   <i type="int" name="IBRION">    -1</i>
   <i type="int" name="MDALGO">     0</i>
   <i type="int" name="ISIF">     2</i>
   <i name="PSTRESS">      0.00000000</i>
   <i name="EDIFFG">      0.00000010</i>
   <i type="int" name="NFREE">     0</i>
   <i name="POTIM">      0.50000000</i>
   <i name="SMASS">     -3.00000000</i>
   <i name="SCALEE">      1.00000000</i>
  </separator>
  <separator name="ionic md" >
   <i name="TEBEG">      0.00010000</i>
   <i name="TEEND">      0.00010000</i>
   <i type="int" name="NBLOCK">     1</i>
   <i type="int" name="KBLOCK">     1</i>
   <i type="int" name="NPACO">   256</i>
   <i name="APACO">     10.00000000</i>
  </separator>
  <separator name="symmetry" >
   <i type="int" name="ISYM">     2</i>
   <i name="SYMPREC">      0.00001000</i>
  </separator>
  <separator name="dos" >
   <i type="int" name="LORBIT">     0</i>
   <v name="RWIGS">     -1.00000000     -1.00000000</v>
   <i type="int" name="NEDOS">   301</i>
   <i name="EMIN">     10.00000000</i>
   <i name="EMAX">    -10.00000000</i>
   <i name="EFERMI">      0.00000000</i>
  </separator>
  <separator name="writing" >
   <i type="int" name="NWRITE">     2</i>
   <i type="logical" name="LWAVE"> F  </i>
   <i type="logical" name="LDOWNSAMPLE"> F  </i>
   <i type="logical" name="LCHARG"> F  </i>
   <i type="logical" name="LPARD"> F  </i>
   <i type="logical" name="LVTOT"> F  </i>
   <i type="logical" name="LVHAR"> F  </i>
   <i type="logical" name="LELF"> F  </i>
   <i type="logical" name="LOPTICS"> F  </i>
   <v name="STM">      0.00000000      0.00000000      0.00000000      0.00000000      0.00000000      0.00000000      0.00000000</v>
  </separator>
  <separator name="performance" >
   <i type="int" name="NPAR">     8</i>
   <i type="int" name="NSIM">     4</i>
   <i type="int" name="NBLK">    -1</i>
   <i type="logical" name="LPLANE"> T  </i>
   <i type="logical" name="LSCALAPACK"> T  </i>
   <i type="logical" name="LSCAAWARE"> F  </i>
   <i type="logical" name="LSCALU"> F  </i>
   <i type="logical" name="LASYNC"> F  </i>
   <i type="logical" name="LORBITALREAL"> F  </i>
  </separator>
  <separator name="miscellaneous" >
   <i type="int" name="IDIOT">     3</i>
   <i type="int" name="PHON_NSTRUCT">    -1</i>
   <i type="logical" name="LMUSIC"> F  </i>
   <v name="POMASS">    132.90000000     35.45300000</v>
   <v name="DARWINR">      0.00000000      0.00000000</v>
   <v name="DARWINV">      1.00000000      1.00000000</v>
   <i type="logical" name="LCORR"> T  </i>
  </separator>
  <i type="logical" name="GGA_COMPAT"> T  </i>
  <i type="logical" name="LBERRY"> F  </i>
  <i type="int" name="ICORELEVEL">     0</i>
  <i type="logical" name="LDAU"> F  </i>
  <i type="int" name="I_CONSTRAINED_M">     0</i>
  <separator name="electronic exchange-correlation" >
   <i type="string" name="GGA    ">PE</i>
   <i type="string" name="XC_C">1</i>
   <i type="int" name="VOSKOWN">     0</i>
   <i type="logical" name="LHFCALC"> F  </i>
   <i type="string" name="PRECFOCK"></i>
   <i type="logical" name="LSYMGRAD"> F  </i>
   <i type="logical" name="LHFONE"> F  </i>
   <i type="logical" name="LRHFCALC"> F  </i>
   <i type="logical" name="LTHOMAS"> F  </i>
   <i type="logical" name="LMODELHF"> F  </i>
   <i type="logical" name="LFOCKACE"> F  </i>
   <i name="ENCUT4O">     -1.00000000</i>
   <i type="int" name="EXXOEP">     0</i>
   <i type="int" name="FOURORBIT">     0</i>
   <i name="AEXX">      0.00000000</i>
   <i name="HFALPHA">      0.00000000</i>
   <i name="MCALPHA">      0.00000000</i>
   <i name="ALDAX">      1.00000000</i>
   <i name="AGGAX">      1.00000000</i>
   <i name="AMGGAX">      1.00000000</i>
   <i name="ALDAC">      1.00000000</i>
   <i name="AGGAC">      1.00000000</i>
   <i name="AMGGAC">      1.00000000</i>
   <i type="int" name="NKREDX">     1</i>
   <i type="int" name="NKREDY">     1</i>
   <i type="int" name="NKREDZ">     1</i>
   <i type="logical" name="SHIFTRED"> F  </i>
   <i type="logical" name="ODDONLY"> F  </i>
   <i type="logical" name="EVENONLY"> F  </i>
   <i type="int" name="LMAXFOCK">     0</i>
   <i type="int" name="NMAXFOCKAE">     0</i>
   <i type="logical" name="LFOCKAEDFT"> F  </i>
   <i name="HFSCREEN">      0.00000000</i>
   <i name="HFSCREENC">      0.00000000</i>
   <i type="int" name="NBANDSGWLOW">     0</i>
  </separator>
  <separator name="vdW DFT" >
   <i type="logical" name="LUSE_VDW"> F  </i>
   <i type="int" name="IVDW_NL">    -1</i>
   <i type="logical" name="LSPIN_VDW"> F  </i>
   <i name="ZAB_VDW">     -0.84910000</i>
   <i name="GAMMA_VDW">      1.39626340</i>
   <i name="ALPHA_VDW">      0.00000000</i>
   <i name="PARAM1">      0.12340000</i>
   <i name="PARAM2">      1.00000000</i>
   <i name="BPARAM">      6.30000000</i>
   <i name="CPARAM">      0.00930000</i>
  </separator>
  <separator name="model GW" >
   <i type="int" name="MODEL_GW">     0</i>
   <i name="MODEL_EPS0">     21.34448344</i>
   <i name="MODEL_ALPHA">      1.00000000</i>
  </separator>
  <separator name="linear response parameters" >
   <i type="logical" name="LEPSILON"> F  </i>
   <i type="logical" name="LRPA"> F  </i>
   <i type="logical" name="LNABLA"> F  </i>
   <i type="logical" name="LVEL"> F  </i>
   <i name="CSHIFT">      0.10000000</i>
   <i name="OMEGAMAX">     -1.00000000</i>
   <i name="DEG_THRESHOLD">      0.00200000</i>
   <i name="RTIME">     -0.10000000</i>
   <i name="WPLASMAI">      0.00000000</i>
   <v name="DFIELD">      0.00000000      0.00000000      0.00000000</v>
   <v name="WPLASMA">      0.00000000      0.00000000      0.00000000      0.00000000      0.00000000      0.00000000      0.00000000      0.00000000      0.00000000</v>
  </separator>
  <separator name="orbital magnetization" >
   <i type="logical" name="NUCIND"> F  </i>
   <v name="MAGPOS">      0.00000000      0.00000000      0.00000000</v>
   <i type="logical" name="LNICSALL"> T  </i>
   <i type="logical" name="ORBITALMAG"> F  </i>
   <i type="logical" name="LMAGBLOCH"> F  </i>
   <i type="logical" name="LCHIMAG"> F  </i>
   <i type="logical" name="LGAUGE"> T  </i>
   <i type="int" name="MAGATOM">     0</i>
   <v name="MAGDIPOL">      0.00000000      0.00000000      0.00000000</v>
   <v name="AVECCONST">      0.00000000      0.00000000      0.00000000</v>
  </separator>
  <separator name="response functions" >
   <i type="logical" name="LALL_IN_ONE"> F  </i>
   <i type="int" name="IALL_IN_ONE">    -1</i>
   <i type="int" name="NBANDS_WAVE">    -1</i>
   <i type="logical" name="LFINITE_TEMPERATURE"> F  </i>
   <i type="logical" name="LADDER"> F  </i>
   <i type="logical" name="LRPAFORCE"> F  </i>
   <i type="logical" name="LFXC"> F  </i>
   <i type="logical" name="LHARTREE"> T  </i>
   <i type="int" name="IBSE">     0</i>
   <v type="int" name="KPOINT">    -1     0     0     0</v>
   <i type="logical" name="LTCTC"> F  </i>
   <i type="logical" name="LTCTE"> F  </i>
   <i type="logical" name="LTETE"> F  </i>
   <i type="logical" name="LTRIPLET"> F  </i>
   <i type="logical" name="LFXCEPS"> F  </i>
   <i type="logical" name="LFXHEG"> F  </i>
   <i type="int" name="NATURALO">     2</i>
   <i type="logical" name="LHOLEGF"> F  </i>
   <i type="logical" name="L2ORDER"> F  </i>
   <i type="logical" name="LDMP1"> F  </i>
   <i type="logical" name="LMP2LT"> F  </i>
   <i type="logical" name="LSMP2LT"> F  </i>
   <i type="logical" name="LGWLF"> F  </i>
   <i name="ENCUTGW">     -1.60000002</i>
   <i name="ENCUTGWSOFT">     -1.60000002</i>
   <i name="ENCUTLF">     -1.00000000</i>
   <i type="logical" name="ESF_SPLINES"> F  </i>
   <i name="ESF_CONV">      0.01000000</i>
   <i type="int" name="ESF_NINTER">    15</i>
   <i type="int" name="LMAXMP2">    -1</i>
   <i name="SCISSOR">      0.00000000</i>
   <i type="int" name="NOMEGA">     0</i>
   <i type="int" name="NOMEGAR">     0</i>
   <i type="int" name="NBANDSGW">    -1</i>
   <i type="int" name="NBANDSO">    -1</i>
   <i type="int" name="NBANDSV">    -1</i>
   <i type="int" name="NELMGW">     1</i>
   <i type="int" name="NELMHF">     1</i>
   <i type="int" name="DIM">     3</i>
   <i type="int" name="IESPILON">     4</i>
   <i type="int" name="ANTIRES">     0</i>
   <i name="OMEGAMAX">    -30.00000000</i>
   <i name="OMEGAMIN">    -30.00000000</i>
   <i name="OMEGATL">   -200.00000000</i>
   <i type="int" name="OMEGAGRID">     0</i>
   <i name="CSHIFT">     -0.10000000</i>
   <i type="logical" name="LSELFENERGY"> F  </i>
   <i type="logical" name="LSPECTRAL"> F  </i>
   <i type="logical" name="LSPECTRALGW"> F  </i>
   <i type="logical" name="LSINGLES"> F  </i>
   <i type="logical" name="LFERMIGW"> F  </i>
   <i type="logical" name="ODDONLYGW"> F  </i>
   <i type="logical" name="EVENONLYGW"> F  </i>
   <i type="int" name="NKREDLFX">     1</i>
   <i type="int" name="NKREDLFY">     1</i>
   <i type="int" name="NKREDLFZ">     1</i>
   <i type="int" name="MAXMEM">  2800</i>
   <i type="int" name="TELESCOPE">     0</i>
   <i type="int" name="NTAUPAR">    -1</i>
   <i type="int" name="NOMEGAPAR">    -1</i>
   <i name="DAMP_NEWTON">      0.80000001</i>
   <i name="LAMBDA">      1.00000000</i>
  </separator>
  <separator name="External order field" >
   <i name="OFIELD_KAPPA">      0.00000000</i>
   <v name="OFIELD_K">      0.00000000      0.00000000      0.00000000</v>
   <i name="OFIELD_Q6_NEAR">      0.00000000</i>
   <i name="OFIELD_Q6_FAR">      0.00000000</i>
   <i name="OFIELD_A">      0.00000000</i>
  </separator>
  <separator name="optional k-points parameters" >
   <i type="int" name="KPOINTS_OPT_MODE">     1</i>
   <i type="logical" name="LKPOINTS_OPT"> F  </i>
  </separator>
 </parameters>
 <atominfo>
  <atoms>       8 </atoms>
  <types>       2 </types>
  <array name="atoms" >
   <dimension dim="1">ion</dimension>
   <field type="string">element</field>
   <field type="int">atomtype</field>
   <set>
    <rc><c>Cs</c><c>   1</c></rc>
    <rc><c>Cs</c><c>   1</c></rc>
    <rc><c>Cs</c><c>   1</c></rc>
    <rc><c>Cs</c><c>   1</c></rc>
    <rc><c>Cl</c><c>   2</c></rc>
    <rc><c>Cl</c><c>   2</c></rc>
    <rc><c>Cl</c><c>   2</c></rc>
    <rc><c>Cl</c><c>   2</c></rc>
   </set>
  </array>
  <array name="atomtypes" >
   <dimension dim="1">type</dimension>
   <field type="int">atomspertype</field>
   <field type="string">element</field>
   <field>mass</field>
   <field>valence</field>
   <field type="string">pseudopotential</field>
   <set>
    <rc><c>   4</c><c>Cs</c><c>    132.90000000</c><c>      9.00000000</c><c>  PAW_PBE Cs_sv 25Jan2019               </c></rc>
    <rc><c>   4</c><c>Cl</c><c>     35.45300000</c><c>      7.00000000</c><c>  PAW_PBE Cl 06Sep2000                  </c></rc>
   </set>
  </array>
 </atominfo>
 <structure name="initialpos" >
  <crystal>
   <varray name="basis" >
    <v>       8.28739668       0.00000000       0.00000000 </v>
    <v>      -4.14369834       8.28739668       0.00000000 </v>
    <v>       0.00000000       0.00000000       4.14369834 </v>
   </varray>
   <i name="volume">    284.59311253 </i>
   <varray name="rec_basis" >
    <v>       0.12066515       0.06033258      -0.00000000 </v>
    <v>       0.00000000       0.12066515       0.00000000 </v>
    <v>      -0.00000000      -0.00000000       0.24133031 </v>
   </varray>
  </crystal>
  <varray name="positions" >
   <v>       0.00000000       0.00098523       0.00098523 </v>
   <v>       0.50000000       0.00000000       0.00000000 </v>
   <v>       0.25000000       0.50000000       0.00000000 </v>
   <v>       0.75000000       0.50000000       0.00000000 </v>
   <v>       0.37500000       0.25000000       0.50000000 </v>
   <v>       0.87500000       0.25000000       0.50000000 </v>
   <v>       0.62500000       0.75000000       0.50000000 </v>
   <v>       0.12500000       0.75000000       0.50000000 </v>
  </varray>
 </structure>
 <calculation>
  <scstep>
   <time name="dav">    1.94    1.94</time>
   <time name="total">    1.96    1.96</time>
   <energy>
    <i name="alphaZ">    214.16676563 </i>
    <i name="ewald">  -3265.84641504 </i>
    <i name="hartreedc">   -531.75880757 </i>
    <i name="XCdc">   -120.86788111 </i>
    <i name="pawpsdc">   3246.12869203 </i>
    <i name="pawaedc">  -2972.40719683 </i>
    <i name="eentropy">     -0.00012342 </i>
    <i name="bandstr">     37.99059943 </i>
    <i name="atom">   3861.61514281 </i>
    <i name="e_fr_energy">    469.02077596 </i>
    <i name="e_wo_entrp">    469.02089937 </i>
    <i name="e_0_energy">    469.02083766 </i>
   </energy>
  </scstep>
  <scstep>
   <time name="dav">    2.41    2.41</time>
   <time name="total">    2.41    2.41</time>
   <energy>
    <i name="e_fr_energy">     16.03329352 </i>
    <i name="e_wo_entrp">     16.03329352 </i>
    <i name="e_0_energy">     16.03329352 </i>
   </energy>
  </scstep>
  <scstep>
   <time name="dav">    2.17    2.17</time>
   <time name="total">    2.17    2.17</time>
   <energy>
    <i name="e_fr_energy">    -27.13598345 </i>
    <i name="e_wo_entrp">    -27.13598345 </i>
    <i name="e_0_energy">    -27.13598345 </i>
   </energy>
  </scstep>
  <scstep>
   <time name="dav">    2.15    2.15</time>
   <time name="total">    2.15    2.16</time>
   <energy>
    <i name="e_fr_energy">    -27.79900499 </i>
    <i name="e_wo_entrp">    -27.79900499 </i>
    <i name="e_0_energy">    -27.79900499 </i>
   </energy>
  </scstep>
  <scstep>
   <time name="dav">    2.07    2.07</time>
   <time name="total">    2.18    2.18</time>
   <energy>
    <i name="e_fr_energy">    -27.81207226 </i>
    <i name="e_wo_entrp">    -27.81207226 </i>
    <i name="e_0_energy">    -27.81207226 </i>
   </energy>
  </scstep>
  <scstep>
   <time name="dav">    2.09    2.09</time>
   <time name="total">    2.24    2.24</time>
   <energy>
    <i name="e_fr_energy">    -26.30034222 </i>
    <i name="e_wo_entrp">    -26.30034222 </i>
    <i name="e_0_energy">    -26.30034222 </i>
   </energy>
  </scstep>
  <scstep>
   <time name="dav">    2.34    2.34</time>
   <time name="total">    2.47    2.47</time>
   <energy>
    <i name="e_fr_energy">    -26.12947276 </i>
    <i name="e_wo_entrp">    -26.12947276 </i>
    <i name="e_0_energy">    -26.12947276 </i>
   </energy>
  </scstep>
  <scstep>
   <time name="dav">    2.13    2.13</time>
   <time name="total">    2.26    2.27</time>
   <energy>
    <i name="e_fr_energy">    -26.13385846 </i>
    <i name="e_wo_entrp">    -26.13385846 </i>
    <i name="e_0_energy">    -26.13385846 </i>
   </energy>
  </scstep>
  <scstep>
   <time name="dav">    2.31    2.31</time>
   <time name="total">    2.44    2.45</time>
   <energy>
    <i name="e_fr_energy">    -26.13140250 </i>
    <i name="e_wo_entrp">    -26.13140250 </i>
    <i name="e_0_energy">    -26.13140250 </i>
   </energy>
  </scstep>
  <scstep>
   <time name="dav">    2.14    2.14</time>
   <time name="total">    2.28    2.28</time>
   <energy>
    <i name="e_fr_energy">    -26.13204225 </i>
    <i name="e_wo_entrp">    -26.13204225 </i>
    <i name="e_0_energy">    -26.13204225 </i>
   </energy>
  </scstep>
  <scstep>
   <time name="dav">    2.13    2.13</time>
   <time name="total">    2.27    2.27</time>
   <energy>
    <i name="e_fr_energy">    -26.13222949 </i>
    <i name="e_wo_entrp">    -26.13222949 </i>
    <i name="e_0_energy">    -26.13222949 </i>
   </energy>
  </scstep>
  <scstep>
   <time name="dav">    2.14    2.14</time>
   <time name="total">    2.27    2.28</time>
   <energy>
    <i name="e_fr_energy">    -26.13223795 </i>
    <i name="e_wo_entrp">    -26.13223795 </i>
    <i name="e_0_energy">    -26.13223795 </i>
   </energy>
  </scstep>
  <scstep>
   <time name="dav">    2.30    2.30</time>
   <time name="total">    2.44    2.44</time>
   <energy>
    <i name="e_fr_energy">    -26.13223700 </i>
    <i name="e_wo_entrp">    -26.13223700 </i>
    <i name="e_0_energy">    -26.13223700 </i>
   </energy>
  </scstep>
  <scstep>
   <time name="dav">    1.79    1.79</time>
   <time name="total">    1.81    1.81</time>
   <energy>
    <i name="alphaZ">    214.16676563 </i>
    <i name="ewald">  -3265.84641504 </i>
    <i name="hartreedc">   -554.75537085 </i>
    <i name="XCdc">   -118.49250917 </i>
    <i name="pawpsdc">   3633.63940062 </i>
    <i name="pawaedc">  -3361.13633025 </i>
    <i name="eentropy">     -0.00000000 </i>
    <i name="bandstr">   -435.32292077 </i>
    <i name="atom">   3861.61514281 </i>
    <i name="e_fr_energy">    -26.13223701 </i>
    <i name="e_wo_entrp">    -26.13223701 </i>
    <i name="e_0_energy">    -26.13223701 </i>
   </energy>
  </scstep>
  <structure>
   <crystal>
    <varray name="basis" >
     <v>       8.28739668       0.00000000       0.00000000 </v>
     <v>      -4.14369834       8.28739668       0.00000000 </v>
     <v>       0.00000000       0.00000000       4.14369834 </v>
    </varray>
    <i name="volume">    284.59311253 </i>
    <varray name="rec_basis" >
     <v>       0.12066515       0.06033258      -0.00000000 </v>
     <v>       0.00000000       0.12066515       0.00000000 </v>
     <v>      -0.00000000      -0.00000000       0.24133031 </v>
    </varray>
   </crystal>
   <varray name="positions" >
    <v>       0.00000000       0.00098523       0.00098523 </v>
    <v>       0.50000000       0.00000000       0.00000000 </v>
    <v>       0.25000000       0.50000000       0.00000000 </v>
    <v>       0.75000000       0.50000000       0.00000000 </v>
    <v>       0.37500000       0.25000000       0.50000000 </v>
    <v>       0.87500000       0.25000000       0.50000000 </v>
    <v>       0.62500000       0.75000000       0.50000000 </v>
    <v>       0.12500000       0.75000000       0.50000000 </v>
   </varray>
  </structure>
  <varray name="forces" >
   <v>       0.00688087      -0.01387751      -0.00249234 </v>
   <v>      -0.00393039      -0.00273814      -0.00034540 </v>
   <v>       0.00016099       0.00511402      -0.00017556 </v>
   <v>       0.00015045       0.00508160      -0.00017160 </v>
   <v>      -0.00008399       0.00120850       0.00080648 </v>
   <v>      -0.00159752       0.00207277       0.00082951 </v>
   <v>      -0.00010476       0.00119159       0.00078414 </v>
   <v>      -0.00147565       0.00194716       0.00076476 </v>
  </varray>
  <varray name="stress" >
   <v>       7.40962155       0.00009042      -0.00044666 </v>
   <v>       0.00009056       7.41897043       0.00077439 </v>
   <v>      -0.00044667       0.00077443       7.40546893 </v>
  </varray>
  <energy>
   <i name="e_fr_energy">    -26.13223701 </i>
   <i name="e_wo_entrp">    -26.13223701 </i>
   <i name="e_0_energy">    -26.13223701 </i>
  </energy>
  <time name="totalsc">   33.40   33.41</time>
  <eigenvalues>
   <array>
    <dimension dim="1">band</dimension>
    <dimension dim="2">kpoint</dimension>
    <dimension dim="3">spin</dimension>
    <field>eigene</field>
    <field>occ</field>
    <set>
     <set comment="spin 1">
      <set comment="kpoint 1">
       <r>  -19.7963    1.0000 </r>
       <r>  -19.7193    1.0000 </r>
       <r>  -19.6870    1.0000 </r>
       <r>  -19.6862    1.0000 </r>
       <r>  -12.5934    1.0000 </r>
       <r>  -12.5526    1.0000 </r>
       <r>  -12.5363    1.0000 </r>
       <r>  -12.5269    1.0000 </r>
       <r>   -6.9179    1.0000 </r>
       <r>   -6.9173    1.0000 </r>
       <r>   -6.8087    1.0000 </r>
       <r>   -6.6342    1.0000 </r>
       <r>   -6.6276    1.0000 </r>
       <r>   -6.2936    1.0000 </r>
       <r>   -6.2936    1.0000 </r>
       <r>   -6.2935    1.0000 </r>
       <r>   -6.1597    1.0000 </r>
       <r>   -6.1597    1.0000 </r>
       <r>   -6.1187    1.0000 </r>
       <r>   -6.1179    1.0000 </r>
       <r>   -1.5318    1.0000 </r>
       <r>   -1.1540    1.0000 </r>
       <r>   -1.1462    1.0000 </r>
       <r>   -0.7405    1.0000 </r>
       <r>   -0.7346    1.0000 </r>
       <r>   -0.6186    1.0000 </r>
       <r>   -0.6185    1.0000 </r>
       <r>   -0.5387    1.0000 </r>
       <r>   -0.5280    1.0000 </r>
       <r>   -0.3952    1.0000 </r>
       <r>   -0.3951    1.0000 </r>
       <r>   -0.3951    1.0000 </r>
       <r>    4.7979    0.0000 </r>
       <r>    5.0131    0.0000 </r>
       <r>    5.0132    0.0000 </r>
       <r>    6.0072    0.0000 </r>
       <r>    6.0093    0.0000 </r>
       <r>    6.0115    0.0000 </r>
       <r>    6.5184    0.0000 </r>
       <r>    6.5249    0.0000 </r>
      </set>
      <set comment="kpoint 2">
       <r>  -19.7899    1.0000 </r>
       <r>  -19.7163    1.0000 </r>
       <r>  -19.7000    1.0000 </r>
       <r>  -19.6828    1.0000 </r>
       <r>  -12.5850    1.0000 </r>
       <r>  -12.5552    1.0000 </r>
       <r>  -12.5490    1.0000 </r>
       <r>  -12.5186    1.0000 </r>
       <r>   -6.9128    1.0000 </r>
       <r>   -6.8559    1.0000 </r>
       <r>   -6.8152    1.0000 </r>
       <r>   -6.7227    1.0000 </r>
       <r>   -6.5096    1.0000 </r>
       <r>   -6.3348    1.0000 </r>
       <r>   -6.2918    1.0000 </r>
       <r>   -6.2828    1.0000 </r>
       <r>   -6.2297    1.0000 </r>
       <r>   -6.1565    1.0000 </r>
       <r>   -6.1371    1.0000 </r>
       <r>   -6.1145    1.0000 </r>
       <r>   -1.4621    1.0000 </r>
       <r>   -1.2184    1.0000 </r>
       <r>   -1.0649    1.0000 </r>
       <r>   -0.7492    1.0000 </r>
       <r>   -0.6972    1.0000 </r>
       <r>   -0.6331    1.0000 </r>
       <r>   -0.6039    1.0000 </r>
       <r>   -0.5503    1.0000 </r>
       <r>   -0.5109    1.0000 </r>
       <r>   -0.5069    1.0000 </r>
       <r>   -0.4180    1.0000 </r>
       <r>   -0.4124    1.0000 </r>
       <r>    5.0042    0.0000 </r>
       <r>    5.0917    0.0000 </r>
       <r>    5.1980    0.0000 </r>
       <r>    5.8870    0.0000 </r>
       <r>    6.0576    0.0000 </r>
       <r>    6.0610    0.0000 </r>
       <r>    6.3171    0.0000 </r>
       <r>    6.7655    0.0000 </r>
      </set>
      <set comment="kpoint 3">
       <r>  -19.7724    1.0000 </r>
       <r>  -19.7219    1.0000 </r>
       <r>  -19.7080    1.0000 </r>
       <r>  -19.6875    1.0000 </r>
       <r>  -12.5668    1.0000 </r>
       <r>  -12.5615    1.0000 </r>
       <r>  -12.5568    1.0000 </r>
       <r>  -12.5199    1.0000 </r>
       <r>   -6.8637    1.0000 </r>
       <r>   -6.8301    1.0000 </r>
       <r>   -6.7402    1.0000 </r>
       <r>   -6.7348    1.0000 </r>
       <r>   -6.4453    1.0000 </r>
       <r>   -6.4039    1.0000 </r>
       <r>   -6.3978    1.0000 </r>
       <r>   -6.2954    1.0000 </r>
       <r>   -6.2532    1.0000 </r>
       <r>   -6.1705    1.0000 </r>
       <r>   -6.1475    1.0000 </r>
       <r>   -6.1220    1.0000 </r>
       <r>   -1.2953    1.0000 </r>
       <r>   -1.1901    1.0000 </r>
       <r>   -1.0430    1.0000 </r>
       <r>   -0.7666    1.0000 </r>
       <r>   -0.7377    1.0000 </r>
       <r>   -0.6692    1.0000 </r>
       <r>   -0.6334    1.0000 </r>
       <r>   -0.5674    1.0000 </r>
       <r>   -0.5427    1.0000 </r>
       <r>   -0.5056    1.0000 </r>
       <r>   -0.4778    1.0000 </r>
       <r>   -0.4562    1.0000 </r>
       <r>    5.3095    0.0000 </r>
       <r>    5.5163    0.0000 </r>
       <r>    5.7412    0.0000 </r>
       <r>    5.8435    0.0000 </r>
       <r>    5.9265    0.0000 </r>
       <r>    6.0858    0.0000 </r>
       <r>    6.3256    0.0000 </r>
       <r>    6.6129    0.0000 </r>
      </set>
      <set comment="kpoint 4">
       <r>  -19.7487    1.0000 </r>
       <r>  -19.7470    1.0000 </r>
       <r>  -19.6976    1.0000 </r>
       <r>  -19.6969    1.0000 </r>
       <r>  -12.5673    1.0000 </r>
       <r>  -12.5640    1.0000 </r>
       <r>  -12.5379    1.0000 </r>
       <r>  -12.5346    1.0000 </r>
       <r>   -6.8475    1.0000 </r>
       <r>   -6.8411    1.0000 </r>
       <r>   -6.6049    1.0000 </r>
       <r>   -6.6009    1.0000 </r>
       <r>   -6.5943    1.0000 </r>
       <r>   -6.5912    1.0000 </r>
       <r>   -6.3256    1.0000 </r>
       <r>   -6.3242    1.0000 </r>
       <r>   -6.2132    1.0000 </r>
       <r>   -6.2116    1.0000 </r>
       <r>   -6.1350    1.0000 </r>
       <r>   -6.1346    1.0000 </r>
       <r>   -1.1277    1.0000 </r>
       <r>   -1.1263    1.0000 </r>
       <r>   -1.0302    1.0000 </r>
       <r>   -1.0274    1.0000 </r>
       <r>   -0.7108    1.0000 </r>
       <r>   -0.7088    1.0000 </r>
       <r>   -0.5566    1.0000 </r>
       <r>   -0.5547    1.0000 </r>
       <r>   -0.5310    1.0000 </r>
       <r>   -0.5268    1.0000 </r>
       <r>   -0.5075    1.0000 </r>
       <r>   -0.5039    1.0000 </r>
       <r>    5.6255    0.0000 </r>
       <r>    5.6262    0.0000 </r>
       <r>    5.9584    0.0000 </r>
       <r>    5.9602    0.0000 </r>
       <r>    6.1115    0.0000 </r>
       <r>    6.1132    0.0000 </r>
       <r>    6.5438    0.0000 </r>
       <r>    6.5463    0.0000 </r>
      </set>
      <set comment="kpoint 5">
       <r>  -19.7890    1.0000 </r>
       <r>  -19.7268    1.0000 </r>
       <r>  -19.7058    1.0000 </r>
       <r>  -19.6671    1.0000 </r>
       <r>  -12.5891    1.0000 </r>
       <r>  -12.5683    1.0000 </r>
       <r>  -12.5553    1.0000 </r>
       <r>  -12.4943    1.0000 </r>
       <r>   -6.9846    1.0000 </r>
       <r>   -6.8739    1.0000 </r>
       <r>   -6.8528    1.0000 </r>
       <r>   -6.7654    1.0000 </r>
       <r>   -6.3646    1.0000 </r>
       <r>   -6.3494    1.0000 </r>
       <r>   -6.2813    1.0000 </r>
       <r>   -6.2812    1.0000 </r>
       <r>   -6.1730    1.0000 </r>
       <r>   -6.1729    1.0000 </r>
       <r>   -6.1427    1.0000 </r>
       <r>   -6.0936    1.0000 </r>
       <r>   -1.4419    1.0000 </r>
       <r>   -1.3657    1.0000 </r>
       <r>   -0.9514    1.0000 </r>
       <r>   -0.7896    1.0000 </r>
       <r>   -0.6724    1.0000 </r>
       <r>   -0.5965    1.0000 </r>
       <r>   -0.5962    1.0000 </r>
       <r>   -0.5840    1.0000 </r>
       <r>   -0.5304    1.0000 </r>
       <r>   -0.4809    1.0000 </r>
       <r>   -0.4154    1.0000 </r>
       <r>   -0.4153    1.0000 </r>
       <r>    5.0350    0.0000 </r>
       <r>    5.0796    0.0000 </r>
       <r>    5.2501    0.0000 </r>
       <r>    5.7429    0.0000 </r>
       <r>    5.8643    0.0000 </r>
       <r>    5.9543    0.0000 </r>
       <r>    6.1519    0.0000 </r>
       <r>    6.8920    0.0000 </r>
      </set>
      <set comment="kpoint 6">
       <r>  -19.7773    1.0000 </r>
       <r>  -19.7294    1.0000 </r>
       <r>  -19.7171    1.0000 </r>
       <r>  -19.6654    1.0000 </r>
       <r>  -12.5802    1.0000 </r>
       <r>  -12.5769    1.0000 </r>
       <r>  -12.5584    1.0000 </r>
       <r>  -12.4894    1.0000 </r>
       <r>   -6.9750    1.0000 </r>
       <r>   -6.9174    1.0000 </r>
       <r>   -6.8013    1.0000 </r>
       <r>   -6.7365    1.0000 </r>
       <r>   -6.4096    1.0000 </r>
       <r>   -6.3004    1.0000 </r>
       <r>   -6.2765    1.0000 </r>
       <r>   -6.2615    1.0000 </r>
       <r>   -6.2449    1.0000 </r>
       <r>   -6.1793    1.0000 </r>
       <r>   -6.1594    1.0000 </r>
       <r>   -6.0917    1.0000 </r>
       <r>   -1.3890    1.0000 </r>
       <r>   -1.3187    1.0000 </r>
       <r>   -0.9230    1.0000 </r>
       <r>   -0.7912    1.0000 </r>
       <r>   -0.6946    1.0000 </r>
       <r>   -0.6339    1.0000 </r>
       <r>   -0.5957    1.0000 </r>
       <r>   -0.5873    1.0000 </r>
       <r>   -0.5688    1.0000 </r>
       <r>   -0.4725    1.0000 </r>
       <r>   -0.4642    1.0000 </r>
       <r>   -0.4439    1.0000 </r>
       <r>    5.2570    0.0000 </r>
       <r>    5.3850    0.0000 </r>
       <r>    5.5659    0.0000 </r>
       <r>    5.6779    0.0000 </r>
       <r>    5.8381    0.0000 </r>
       <r>    5.9083    0.0000 </r>
       <r>    6.0307    0.0000 </r>
       <r>    6.6856    0.0000 </r>
      </set>
      <set comment="kpoint 7">
       <r>  -19.7556    1.0000 </r>
       <r>  -19.7360    1.0000 </r>
       <r>  -19.7252    1.0000 </r>
       <r>  -19.6731    1.0000 </r>
       <r>  -12.5785    1.0000 </r>
       <r>  -12.5652    1.0000 </r>
       <r>  -12.5562    1.0000 </r>
       <r>  -12.5034    1.0000 </r>
       <r>   -6.9523    1.0000 </r>
       <r>   -6.8245    1.0000 </r>
       <r>   -6.7167    1.0000 </r>
       <r>   -6.7010    1.0000 </r>
       <r>   -6.5145    1.0000 </r>
       <r>   -6.3962    1.0000 </r>
       <r>   -6.3674    1.0000 </r>
       <r>   -6.2309    1.0000 </r>
       <r>   -6.2259    1.0000 </r>
       <r>   -6.1902    1.0000 </r>
       <r>   -6.1761    1.0000 </r>
       <r>   -6.1016    1.0000 </r>
       <r>   -1.2715    1.0000 </r>
       <r>   -1.1622    1.0000 </r>
       <r>   -0.9918    1.0000 </r>
       <r>   -0.9051    1.0000 </r>
       <r>   -0.7740    1.0000 </r>
       <r>   -0.6246    1.0000 </r>
       <r>   -0.5742    1.0000 </r>
       <r>   -0.5577    1.0000 </r>
       <r>   -0.5449    1.0000 </r>
       <r>   -0.5362    1.0000 </r>
       <r>   -0.4918    1.0000 </r>
       <r>   -0.4832    1.0000 </r>
       <r>    5.5626    0.0000 </r>
       <r>    5.7313    0.0000 </r>
       <r>    5.7855    0.0000 </r>
       <r>    5.8883    0.0000 </r>
       <r>    5.9519    0.0000 </r>
       <r>    6.0931    0.0000 </r>
       <r>    6.1370    0.0000 </r>
       <r>    6.5320    0.0000 </r>
      </set>
      <set comment="kpoint 8">
       <r>  -19.7578    1.0000 </r>
       <r>  -19.7283    1.0000 </r>
       <r>  -19.7171    1.0000 </r>
       <r>  -19.6870    1.0000 </r>
       <r>  -12.5715    1.0000 </r>
       <r>  -12.5560    1.0000 </r>
       <r>  -12.5451    1.0000 </r>
       <r>  -12.5311    1.0000 </r>
       <r>   -6.9146    1.0000 </r>
       <r>   -6.7155    1.0000 </r>
       <r>   -6.6580    1.0000 </r>
       <r>   -6.6298    1.0000 </r>
       <r>   -6.5704    1.0000 </r>
       <r>   -6.5342    1.0000 </r>
       <r>   -6.4748    1.0000 </r>
       <r>   -6.2322    1.0000 </r>
       <r>   -6.2274    1.0000 </r>
       <r>   -6.1826    1.0000 </r>
       <r>   -6.1654    1.0000 </r>
       <r>   -6.1190    1.0000 </r>
       <r>   -1.1492    1.0000 </r>
       <r>   -1.0802    1.0000 </r>
       <r>   -1.0560    1.0000 </r>
       <r>   -1.0266    1.0000 </r>
       <r>   -0.7363    1.0000 </r>
       <r>   -0.6599    1.0000 </r>
       <r>   -0.6283    1.0000 </r>
       <r>   -0.5344    1.0000 </r>
       <r>   -0.5212    1.0000 </r>
       <r>   -0.5110    1.0000 </r>
       <r>   -0.5062    1.0000 </r>
       <r>   -0.5027    1.0000 </r>
       <r>    5.4176    0.0000 </r>
       <r>    5.8269    0.0000 </r>
       <r>    5.8828    0.0000 </r>
       <r>    5.9594    0.0000 </r>
       <r>    6.0060    0.0000 </r>
       <r>    6.4195    0.0000 </r>
       <r>    6.4309    0.0000 </r>
       <r>    6.5093    0.0000 </r>
      </set>
      <set comment="kpoint 9">
       <r>  -19.7771    1.0000 </r>
       <r>  -19.7084    1.0000 </r>
       <r>  -19.7034    1.0000 </r>
       <r>  -19.7009    1.0000 </r>
       <r>  -12.5668    1.0000 </r>
       <r>  -12.5577    1.0000 </r>
       <r>  -12.5469    1.0000 </r>
       <r>  -12.5344    1.0000 </r>
       <r>   -6.8611    1.0000 </r>
       <r>   -6.8060    1.0000 </r>
       <r>   -6.7815    1.0000 </r>
       <r>   -6.6158    1.0000 </r>
       <r>   -6.5441    1.0000 </r>
       <r>   -6.4370    1.0000 </r>
       <r>   -6.4060    1.0000 </r>
       <r>   -6.2626    1.0000 </r>
       <r>   -6.2608    1.0000 </r>
       <r>   -6.1514    1.0000 </r>
       <r>   -6.1415    1.0000 </r>
       <r>   -6.1392    1.0000 </r>
       <r>   -1.3306    1.0000 </r>
       <r>   -1.1251    1.0000 </r>
       <r>   -1.0944    1.0000 </r>
       <r>   -0.7343    1.0000 </r>
       <r>   -0.7018    1.0000 </r>
       <r>   -0.6824    1.0000 </r>
       <r>   -0.6799    1.0000 </r>
       <r>   -0.5764    1.0000 </r>
       <r>   -0.5303    1.0000 </r>
       <r>   -0.5177    1.0000 </r>
       <r>   -0.4500    1.0000 </r>
       <r>   -0.4488    1.0000 </r>
       <r>    5.1999    0.0000 </r>
       <r>    5.4021    0.0000 </r>
       <r>    5.6680    0.0000 </r>
       <r>    5.9155    0.0000 </r>
       <r>    5.9423    0.0000 </r>
       <r>    6.1462    0.0000 </r>
       <r>    6.4996    0.0000 </r>
       <r>    6.5712    0.0000 </r>
      </set>
      <set comment="kpoint 10">
       <r>  -19.7887    1.0000 </r>
       <r>  -19.7175    1.0000 </r>
       <r>  -19.7033    1.0000 </r>
       <r>  -19.6795    1.0000 </r>
       <r>  -12.5844    1.0000 </r>
       <r>  -12.5564    1.0000 </r>
       <r>  -12.5536    1.0000 </r>
       <r>  -12.5132    1.0000 </r>
       <r>   -6.9241    1.0000 </r>
       <r>   -6.8452    1.0000 </r>
       <r>   -6.8079    1.0000 </r>
       <r>   -6.7616    1.0000 </r>
       <r>   -6.4665    1.0000 </r>
       <r>   -6.3378    1.0000 </r>
       <r>   -6.2970    1.0000 </r>
       <r>   -6.2808    1.0000 </r>
       <r>   -6.2312    1.0000 </r>
       <r>   -6.1587    1.0000 </r>
       <r>   -6.1414    1.0000 </r>
       <r>   -6.1102    1.0000 </r>
       <r>   -1.4486    1.0000 </r>
       <r>   -1.2497    1.0000 </r>
       <r>   -1.0369    1.0000 </r>
       <r>   -0.7579    1.0000 </r>
       <r>   -0.6860    1.0000 </r>
       <r>   -0.6295    1.0000 </r>
       <r>   -0.6006    1.0000 </r>
       <r>   -0.5573    1.0000 </r>
       <r>   -0.5235    1.0000 </r>
       <r>   -0.5037    1.0000 </r>
       <r>   -0.4247    1.0000 </r>
       <r>   -0.4154    1.0000 </r>
       <r>    5.0403    0.0000 </r>
       <r>    5.1199    0.0000 </r>
       <r>    5.2205    0.0000 </r>
       <r>    5.8469    0.0000 </r>
       <r>    6.0367    0.0000 </r>
       <r>    6.0760    0.0000 </r>
       <r>    6.2365    0.0000 </r>
       <r>    6.8510    0.0000 </r>
      </set>
      <set comment="kpoint 11">
       <r>  -19.7700    1.0000 </r>
       <r>  -19.7462    1.0000 </r>
       <r>  -19.7176    1.0000 </r>
       <r>  -19.6550    1.0000 </r>
       <r>  -12.5904    1.0000 </r>
       <r>  -12.5786    1.0000 </r>
       <r>  -12.5635    1.0000 </r>
       <r>  -12.4711    1.0000 </r>
       <r>   -7.0271    1.0000 </r>
       <r>   -7.0145    1.0000 </r>
       <r>   -6.8138    1.0000 </r>
       <r>   -6.6470    1.0000 </r>
       <r>   -6.4885    1.0000 </r>
       <r>   -6.2486    1.0000 </r>
       <r>   -6.2486    1.0000 </r>
       <r>   -6.2072    1.0000 </r>
       <r>   -6.2072    1.0000 </r>
       <r>   -6.1849    1.0000 </r>
       <r>   -6.1576    1.0000 </r>
       <r>   -6.0781    1.0000 </r>
       <r>   -1.5112    1.0000 </r>
       <r>   -1.1927    1.0000 </r>
       <r>   -0.8493    1.0000 </r>
       <r>   -0.8342    1.0000 </r>
       <r>   -0.8155    1.0000 </r>
       <r>   -0.6252    1.0000 </r>
       <r>   -0.6146    1.0000 </r>
       <r>   -0.5389    1.0000 </r>
       <r>   -0.5389    1.0000 </r>
       <r>   -0.4695    1.0000 </r>
       <r>   -0.4693    1.0000 </r>
       <r>   -0.4476    1.0000 </r>
       <r>    5.2715    0.0000 </r>
       <r>    5.5597    0.0000 </r>
       <r>    5.5650    0.0000 </r>
       <r>    5.6121    0.0000 </r>
       <r>    5.6557    0.0000 </r>
       <r>    5.9424    0.0000 </r>
       <r>    6.0415    0.0000 </r>
       <r>    6.2988    0.0000 </r>
      </set>
      <set comment="kpoint 12">
       <r>  -19.7555    1.0000 </r>
       <r>  -19.7514    1.0000 </r>
       <r>  -19.7244    1.0000 </r>
       <r>  -19.6579    1.0000 </r>
       <r>  -12.5900    1.0000 </r>
       <r>  -12.5726    1.0000 </r>
       <r>  -12.5636    1.0000 </r>
       <r>  -12.4766    1.0000 </r>
       <r>   -7.0168    1.0000 </r>
       <r>   -6.9818    1.0000 </r>
       <r>   -6.7786    1.0000 </r>
       <r>   -6.5934    1.0000 </r>
       <r>   -6.5656    1.0000 </r>
       <r>   -6.2759    1.0000 </r>
       <r>   -6.2711    1.0000 </r>
       <r>   -6.2243    1.0000 </r>
       <r>   -6.2174    1.0000 </r>
       <r>   -6.1697    1.0000 </r>
       <r>   -6.1689    1.0000 </r>
       <r>   -6.0818    1.0000 </r>
       <r>   -1.4685    1.0000 </r>
       <r>   -1.0523    1.0000 </r>
       <r>   -1.0002    1.0000 </r>
       <r>   -0.8618    1.0000 </r>
       <r>   -0.8097    1.0000 </r>
       <r>   -0.6029    1.0000 </r>
       <r>   -0.6029    1.0000 </r>
       <r>   -0.5356    1.0000 </r>
       <r>   -0.5222    1.0000 </r>
       <r>   -0.5122    1.0000 </r>
       <r>   -0.4983    1.0000 </r>
       <r>   -0.4555    1.0000 </r>
       <r>    5.4942    0.0000 </r>
       <r>    5.5413    0.0000 </r>
       <r>    5.6074    0.0000 </r>
       <r>    5.7242    0.0000 </r>
       <r>    5.9066    0.0000 </r>
       <r>    5.9667    0.0000 </r>
       <r>    6.0725    0.0000 </r>
       <r>    6.3995    0.0000 </r>
      </set>
      <set comment="kpoint 13">
       <r>  -19.7484    1.0000 </r>
       <r>  -19.7380    1.0000 </r>
       <r>  -19.7326    1.0000 </r>
       <r>  -19.6708    1.0000 </r>
       <r>  -12.5811    1.0000 </r>
       <r>  -12.5651    1.0000 </r>
       <r>  -12.5560    1.0000 </r>
       <r>  -12.5008    1.0000 </r>
       <r>   -6.9688    1.0000 </r>
       <r>   -6.8353    1.0000 </r>
       <r>   -6.6952    1.0000 </r>
       <r>   -6.6662    1.0000 </r>
       <r>   -6.5608    1.0000 </r>
       <r>   -6.3923    1.0000 </r>
       <r>   -6.3796    1.0000 </r>
       <r>   -6.2139    1.0000 </r>
       <r>   -6.2035    1.0000 </r>
       <r>   -6.1932    1.0000 </r>
       <r>   -6.1884    1.0000 </r>
       <r>   -6.0984    1.0000 </r>
       <r>   -1.2856    1.0000 </r>
       <r>   -1.1014    1.0000 </r>
       <r>   -0.9833    1.0000 </r>
       <r>   -0.9692    1.0000 </r>
       <r>   -0.7803    1.0000 </r>
       <r>   -0.6060    1.0000 </r>
       <r>   -0.5664    1.0000 </r>
       <r>   -0.5635    1.0000 </r>
       <r>   -0.5601    1.0000 </r>
       <r>   -0.5235    1.0000 </r>
       <r>   -0.4959    1.0000 </r>
       <r>   -0.4888    1.0000 </r>
       <r>    5.6448    0.0000 </r>
       <r>    5.6831    0.0000 </r>
       <r>    5.7843    0.0000 </r>
       <r>    5.8087    0.0000 </r>
       <r>    6.0479    0.0000 </r>
       <r>    6.0996    0.0000 </r>
       <r>    6.3892    0.0000 </r>
       <r>    6.3951    0.0000 </r>
      </set>
      <set comment="kpoint 14">
       <r>  -19.7544    1.0000 </r>
       <r>  -19.7388    1.0000 </r>
       <r>  -19.7064    1.0000 </r>
       <r>  -19.6905    1.0000 </r>
       <r>  -12.5696    1.0000 </r>
       <r>  -12.5606    1.0000 </r>
       <r>  -12.5409    1.0000 </r>
       <r>  -12.5327    1.0000 </r>
       <r>   -6.8903    1.0000 </r>
       <r>   -6.7824    1.0000 </r>
       <r>   -6.6222    1.0000 </r>
       <r>   -6.6168    1.0000 </r>
       <r>   -6.5789    1.0000 </r>
       <r>   -6.5739    1.0000 </r>
       <r>   -6.4001    1.0000 </r>
       <r>   -6.2652    1.0000 </r>
       <r>   -6.2223    1.0000 </r>
       <r>   -6.1986    1.0000 </r>
       <r>   -6.1489    1.0000 </r>
       <r>   -6.1244    1.0000 </r>
       <r>   -1.1419    1.0000 </r>
       <r>   -1.1055    1.0000 </r>
       <r>   -1.0382    1.0000 </r>
       <r>   -1.0262    1.0000 </r>
       <r>   -0.7269    1.0000 </r>
       <r>   -0.6871    1.0000 </r>
       <r>   -0.5926    1.0000 </r>
       <r>   -0.5326    1.0000 </r>
       <r>   -0.5246    1.0000 </r>
       <r>   -0.5243    1.0000 </r>
       <r>   -0.5086    1.0000 </r>
       <r>   -0.5035    1.0000 </r>
       <r>    5.4981    0.0000 </r>
       <r>    5.7444    0.0000 </r>
       <r>    5.9245    0.0000 </r>
       <r>    5.9882    0.0000 </r>
       <r>    6.0064    0.0000 </r>
       <r>    6.2754    0.0000 </r>
       <r>    6.4710    0.0000 </r>
       <r>    6.5343    0.0000 </r>
      </set>
      <set comment="kpoint 15">
       <r>  -19.7680    1.0000 </r>
       <r>  -19.7276    1.0000 </r>
       <r>  -19.7127    1.0000 </r>
       <r>  -19.6816    1.0000 </r>
       <r>  -12.5694    1.0000 </r>
       <r>  -12.5652    1.0000 </r>
       <r>  -12.5567    1.0000 </r>
       <r>  -12.5132    1.0000 </r>
       <r>   -6.8958    1.0000 </r>
       <r>   -6.8004    1.0000 </r>
       <r>   -6.7762    1.0000 </r>
       <r>   -6.7237    1.0000 </r>
       <r>   -6.4572    1.0000 </r>
       <r>   -6.4019    1.0000 </r>
       <r>   -6.3313    1.0000 </r>
       <r>   -6.3222    1.0000 </r>
       <r>   -6.2460    1.0000 </r>
       <r>   -6.1785    1.0000 </r>
       <r>   -6.1552    1.0000 </r>
       <r>   -6.1137    1.0000 </r>
       <r>   -1.2608    1.0000 </r>
       <r>   -1.2216    1.0000 </r>
       <r>   -1.0223    1.0000 </r>
       <r>   -0.8009    1.0000 </r>
       <r>   -0.7522    1.0000 </r>
       <r>   -0.6570    1.0000 </r>
       <r>   -0.6106    1.0000 </r>
       <r>   -0.5592    1.0000 </r>
       <r>   -0.5484    1.0000 </r>
       <r>   -0.5000    1.0000 </r>
       <r>   -0.4997    1.0000 </r>
       <r>   -0.4634    1.0000 </r>
       <r>    5.3936    0.0000 </r>
       <r>    5.6383    0.0000 </r>
       <r>    5.8139    0.0000 </r>
       <r>    5.8215    0.0000 </r>
       <r>    5.8727    0.0000 </r>
       <r>    6.0304    0.0000 </r>
       <r>    6.2388    0.0000 </r>
       <r>    6.5834    0.0000 </r>
      </set>
      <set comment="kpoint 16">
       <r>  -19.7741    1.0000 </r>
       <r>  -19.7326    1.0000 </r>
       <r>  -19.7192    1.0000 </r>
       <r>  -19.6633    1.0000 </r>
       <r>  -12.5818    1.0000 </r>
       <r>  -12.5773    1.0000 </r>
       <r>  -12.5594    1.0000 </r>
       <r>  -12.4859    1.0000 </r>
       <r>   -6.9840    1.0000 </r>
       <r>   -6.9381    1.0000 </r>
       <r>   -6.7949    1.0000 </r>
       <r>   -6.7162    1.0000 </r>
       <r>   -6.4330    1.0000 </r>
       <r>   -6.2972    1.0000 </r>
       <r>   -6.2561    1.0000 </r>
       <r>   -6.2489    1.0000 </r>
       <r>   -6.2472    1.0000 </r>
       <r>   -6.1849    1.0000 </r>
       <r>   -6.1621    1.0000 </r>
       <r>   -6.0889    1.0000 </r>
       <r>   -1.4106    1.0000 </r>
       <r>   -1.2813    1.0000 </r>
       <r>   -0.9065    1.0000 </r>
       <r>   -0.7958    1.0000 </r>
       <r>   -0.7418    1.0000 </r>
       <r>   -0.6255    1.0000 </r>
       <r>   -0.5917    1.0000 </r>
       <r>   -0.5865    1.0000 </r>
       <r>   -0.5602    1.0000 </r>
       <r>   -0.4731    1.0000 </r>
       <r>   -0.4680    1.0000 </r>
       <r>   -0.4518    1.0000 </r>
       <r>    5.2916    0.0000 </r>
       <r>    5.4711    0.0000 </r>
       <r>    5.6554    0.0000 </r>
       <r>    5.6798    0.0000 </r>
       <r>    5.7892    0.0000 </r>
       <r>    5.8596    0.0000 </r>
       <r>    6.0031    0.0000 </r>
       <r>    6.5902    0.0000 </r>
      </set>
      <set comment="kpoint 17">
       <r>  -19.7890    1.0000 </r>
       <r>  -19.7131    1.0000 </r>
       <r>  -19.6809    1.0000 </r>
       <r>  -19.6802    1.0000 </r>
       <r>  -12.5822    1.0000 </r>
       <r>  -12.5554    1.0000 </r>
       <r>  -12.5269    1.0000 </r>
       <r>  -12.5175    1.0000 </r>
       <r>   -6.9174    1.0000 </r>
       <r>   -6.9170    1.0000 </r>
       <r>   -6.8290    1.0000 </r>
       <r>   -6.6206    1.0000 </r>
       <r>   -6.6140    1.0000 </r>
       <r>   -6.3495    1.0000 </r>
       <r>   -6.2813    1.0000 </r>
       <r>   -6.2812    1.0000 </r>
       <r>   -6.2568    1.0000 </r>
       <r>   -6.2037    1.0000 </r>
       <r>   -6.2028    1.0000 </r>
       <r>   -6.1518    1.0000 </r>
       <r>   -1.4530    1.0000 </r>
       <r>   -1.1412    1.0000 </r>
       <r>   -1.1336    1.0000 </r>
       <r>   -0.8287    1.0000 </r>
       <r>   -0.8266    1.0000 </r>
       <r>   -0.6446    1.0000 </r>
       <r>   -0.6027    1.0000 </r>
       <r>   -0.5350    1.0000 </r>
       <r>   -0.5307    1.0000 </r>
       <r>   -0.5277    1.0000 </r>
       <r>   -0.4154    1.0000 </r>
       <r>   -0.4154    1.0000 </r>
       <r>    5.0350    0.0000 </r>
       <r>    5.0796    0.0000 </r>
       <r>    5.2501    0.0000 </r>
       <r>    6.1099    0.0000 </r>
       <r>    6.2550    0.0000 </r>
       <r>    6.2566    0.0000 </r>
       <r>    6.5837    0.0000 </r>
       <r>    6.5892    0.0000 </r>
      </set>
      <set comment="kpoint 18">
       <r>  -19.7828    1.0000 </r>
       <r>  -19.7101    1.0000 </r>
       <r>  -19.6939    1.0000 </r>
       <r>  -19.6768    1.0000 </r>
       <r>  -12.5745    1.0000 </r>
       <r>  -12.5565    1.0000 </r>
       <r>  -12.5398    1.0000 </r>
       <r>  -12.5100    1.0000 </r>
       <r>   -6.9045    1.0000 </r>
       <r>   -6.8587    1.0000 </r>
       <r>   -6.8324    1.0000 </r>
       <r>   -6.7110    1.0000 </r>
       <r>   -6.5000    1.0000 </r>
       <r>   -6.3599    1.0000 </r>
       <r>   -6.3118    1.0000 </r>
       <r>   -6.2750    1.0000 </r>
       <r>   -6.2575    1.0000 </r>
       <r>   -6.2232    1.0000 </r>
       <r>   -6.2142    1.0000 </r>
       <r>   -6.1978    1.0000 </r>
       <r>   -1.3937    1.0000 </r>
       <r>   -1.1848    1.0000 </r>
       <r>   -1.0645    1.0000 </r>
       <r>   -0.8237    1.0000 </r>
       <r>   -0.7786    1.0000 </r>
       <r>   -0.6902    1.0000 </r>
       <r>   -0.6030    1.0000 </r>
       <r>   -0.5673    1.0000 </r>
       <r>   -0.5486    1.0000 </r>
       <r>   -0.5402    1.0000 </r>
       <r>   -0.4477    1.0000 </r>
       <r>   -0.4368    1.0000 </r>
       <r>    5.2050    0.0000 </r>
       <r>    5.2451    0.0000 </r>
       <r>    5.3532    0.0000 </r>
       <r>    6.1417    0.0000 </r>
       <r>    6.1998    0.0000 </r>
       <r>    6.3024    0.0000 </r>
       <r>    6.4383    0.0000 </r>
       <r>    6.8132    0.0000 </r>
      </set>
      <set comment="kpoint 19">
       <r>  -19.7655    1.0000 </r>
       <r>  -19.7156    1.0000 </r>
       <r>  -19.7018    1.0000 </r>
       <r>  -19.6814    1.0000 </r>
       <r>  -12.5626    1.0000 </r>
       <r>  -12.5540    1.0000 </r>
       <r>  -12.5499    1.0000 </r>
       <r>  -12.5118    1.0000 </r>
       <r>   -6.8458    1.0000 </r>
       <r>   -6.8376    1.0000 </r>
       <r>   -6.7433    1.0000 </r>
       <r>   -6.7330    1.0000 </r>
       <r>   -6.4490    1.0000 </r>
       <r>   -6.3959    1.0000 </r>
       <r>   -6.3921    1.0000 </r>
       <r>   -6.3265    1.0000 </r>
       <r>   -6.2711    1.0000 </r>
       <r>   -6.2533    1.0000 </r>
       <r>   -6.2344    1.0000 </r>
       <r>   -6.2049    1.0000 </r>
       <r>   -1.2492    1.0000 </r>
       <r>   -1.1455    1.0000 </r>
       <r>   -1.0395    1.0000 </r>
       <r>   -0.7939    1.0000 </r>
       <r>   -0.7873    1.0000 </r>
       <r>   -0.7468    1.0000 </r>
       <r>   -0.6949    1.0000 </r>
       <r>   -0.5736    1.0000 </r>
       <r>   -0.5510    1.0000 </r>
       <r>   -0.5438    1.0000 </r>
       <r>   -0.5053    1.0000 </r>
       <r>   -0.4950    1.0000 </r>
       <r>    5.5006    0.0000 </r>
       <r>    5.6696    0.0000 </r>
       <r>    5.8390    0.0000 </r>
       <r>    6.1091    0.0000 </r>
       <r>    6.1546    0.0000 </r>
       <r>    6.3125    0.0000 </r>
       <r>    6.4738    0.0000 </r>
       <r>    6.6662    0.0000 </r>
      </set>
      <set comment="kpoint 20">
       <r>  -19.7421    1.0000 </r>
       <r>  -19.7403    1.0000 </r>
       <r>  -19.6915    1.0000 </r>
       <r>  -19.6907    1.0000 </r>
       <r>  -12.5624    1.0000 </r>
       <r>  -12.5592    1.0000 </r>
       <r>  -12.5294    1.0000 </r>
       <r>  -12.5261    1.0000 </r>
       <r>   -6.8417    1.0000 </r>
       <r>   -6.8353    1.0000 </r>
       <r>   -6.5980    1.0000 </r>
       <r>   -6.5966    1.0000 </r>
       <r>   -6.5942    1.0000 </r>
       <r>   -6.5930    1.0000 </r>
       <r>   -6.3294    1.0000 </r>
       <r>   -6.3276    1.0000 </r>
       <r>   -6.2769    1.0000 </r>
       <r>   -6.2756    1.0000 </r>
       <r>   -6.2194    1.0000 </r>
       <r>   -6.2190    1.0000 </r>
       <r>   -1.1028    1.0000 </r>
       <r>   -1.1014    1.0000 </r>
       <r>   -1.0047    1.0000 </r>
       <r>   -1.0025    1.0000 </r>
       <r>   -0.7796    1.0000 </r>
       <r>   -0.7782    1.0000 </r>
       <r>   -0.5958    1.0000 </r>
       <r>   -0.5956    1.0000 </r>
       <r>   -0.5582    1.0000 </r>
       <r>   -0.5551    1.0000 </r>
       <r>   -0.5376    1.0000 </r>
       <r>   -0.5365    1.0000 </r>
       <r>    5.8316    0.0000 </r>
       <r>    5.8326    0.0000 </r>
       <r>    6.2047    0.0000 </r>
       <r>    6.2061    0.0000 </r>
       <r>    6.2115    0.0000 </r>
       <r>    6.2133    0.0000 </r>
       <r>    6.6377    0.0000 </r>
       <r>    6.6498    0.0000 </r>
      </set>
      <set comment="kpoint 21">
       <r>  -19.7655    1.0000 </r>
       <r>  -19.7156    1.0000 </r>
       <r>  -19.7018    1.0000 </r>
       <r>  -19.6814    1.0000 </r>
       <r>  -12.5626    1.0000 </r>
       <r>  -12.5540    1.0000 </r>
       <r>  -12.5499    1.0000 </r>
       <r>  -12.5118    1.0000 </r>
       <r>   -6.8459    1.0000 </r>
       <r>   -6.8375    1.0000 </r>
       <r>   -6.7433    1.0000 </r>
       <r>   -6.7330    1.0000 </r>
       <r>   -6.4490    1.0000 </r>
       <r>   -6.3959    1.0000 </r>
       <r>   -6.3921    1.0000 </r>
       <r>   -6.3265    1.0000 </r>
       <r>   -6.2711    1.0000 </r>
       <r>   -6.2533    1.0000 </r>
       <r>   -6.2344    1.0000 </r>
       <r>   -6.2049    1.0000 </r>
       <r>   -1.2492    1.0000 </r>
       <r>   -1.1455    1.0000 </r>
       <r>   -1.0395    1.0000 </r>
       <r>   -0.7939    1.0000 </r>
       <r>   -0.7873    1.0000 </r>
       <r>   -0.7468    1.0000 </r>
       <r>   -0.6949    1.0000 </r>
       <r>   -0.5737    1.0000 </r>
       <r>   -0.5509    1.0000 </r>
       <r>   -0.5438    1.0000 </r>
       <r>   -0.5053    1.0000 </r>
       <r>   -0.4950    1.0000 </r>
       <r>    5.5006    0.0000 </r>
       <r>    5.6696    0.0000 </r>
       <r>    5.8390    0.0000 </r>
       <r>    6.1091    0.0000 </r>
       <r>    6.1546    0.0000 </r>
       <r>    6.3125    0.0000 </r>
       <r>    6.4738    0.0000 </r>
       <r>    6.6664    0.0000 </r>
      </set>
      <set comment="kpoint 22">
       <r>  -19.7828    1.0000 </r>
       <r>  -19.7101    1.0000 </r>
       <r>  -19.6939    1.0000 </r>
       <r>  -19.6768    1.0000 </r>
       <r>  -12.5745    1.0000 </r>
       <r>  -12.5565    1.0000 </r>
       <r>  -12.5398    1.0000 </r>
       <r>  -12.5100    1.0000 </r>
       <r>   -6.9045    1.0000 </r>
       <r>   -6.8587    1.0000 </r>
       <r>   -6.8324    1.0000 </r>
       <r>   -6.7110    1.0000 </r>
       <r>   -6.5000    1.0000 </r>
       <r>   -6.3599    1.0000 </r>
       <r>   -6.3118    1.0000 </r>
       <r>   -6.2750    1.0000 </r>
       <r>   -6.2575    1.0000 </r>
       <r>   -6.2232    1.0000 </r>
       <r>   -6.2143    1.0000 </r>
       <r>   -6.1978    1.0000 </r>
       <r>   -1.3937    1.0000 </r>
       <r>   -1.1848    1.0000 </r>
       <r>   -1.0645    1.0000 </r>
       <r>   -0.8237    1.0000 </r>
       <r>   -0.7786    1.0000 </r>
       <r>   -0.6902    1.0000 </r>
       <r>   -0.6030    1.0000 </r>
       <r>   -0.5673    1.0000 </r>
       <r>   -0.5486    1.0000 </r>
       <r>   -0.5401    1.0000 </r>
       <r>   -0.4477    1.0000 </r>
       <r>   -0.4368    1.0000 </r>
       <r>    5.2050    0.0000 </r>
       <r>    5.2451    0.0000 </r>
       <r>    5.3532    0.0000 </r>
       <r>    6.1417    0.0000 </r>
       <r>    6.1998    0.0000 </r>
       <r>    6.3024    0.0000 </r>
       <r>    6.4383    0.0000 </r>
       <r>    6.8133    0.0000 </r>
      </set>
      <set comment="kpoint 23">
       <r>  -19.7819    1.0000 </r>
       <r>  -19.7205    1.0000 </r>
       <r>  -19.6997    1.0000 </r>
       <r>  -19.6612    1.0000 </r>
       <r>  -12.5794    1.0000 </r>
       <r>  -12.5587    1.0000 </r>
       <r>  -12.5558    1.0000 </r>
       <r>  -12.4861    1.0000 </r>
       <r>   -6.9725    1.0000 </r>
       <r>   -6.8644    1.0000 </r>
       <r>   -6.8561    1.0000 </r>
       <r>   -6.7846    1.0000 </r>
       <r>   -6.3722    1.0000 </r>
       <r>   -6.3581    1.0000 </r>
       <r>   -6.3088    1.0000 </r>
       <r>   -6.2693    1.0000 </r>
       <r>   -6.2635    1.0000 </r>
       <r>   -6.2303    1.0000 </r>
       <r>   -6.1741    1.0000 </r>
       <r>   -6.1646    1.0000 </r>
       <r>   -1.3773    1.0000 </r>
       <r>   -1.3136    1.0000 </r>
       <r>   -0.9808    1.0000 </r>
       <r>   -0.8692    1.0000 </r>
       <r>   -0.7522    1.0000 </r>
       <r>   -0.6261    1.0000 </r>
       <r>   -0.6190    1.0000 </r>
       <r>   -0.5837    1.0000 </r>
       <r>   -0.5468    1.0000 </r>
       <r>   -0.5397    1.0000 </r>
       <r>   -0.4524    1.0000 </r>
       <r>   -0.4321    1.0000 </r>
       <r>    5.2025    0.0000 </r>
       <r>    5.2704    0.0000 </r>
       <r>    5.3949    0.0000 </r>
       <r>    5.9802    0.0000 </r>
       <r>    6.0039    0.0000 </r>
       <r>    6.1148    0.0000 </r>
       <r>    6.3651    0.0000 </r>
       <r>    6.9063    0.0000 </r>
      </set>
      <set comment="kpoint 24">
       <r>  -19.7703    1.0000 </r>
       <r>  -19.7230    1.0000 </r>
       <r>  -19.7109    1.0000 </r>
       <r>  -19.6595    1.0000 </r>
       <r>  -12.5719    1.0000 </r>
       <r>  -12.5672    1.0000 </r>
       <r>  -12.5575    1.0000 </r>
       <r>  -12.4816    1.0000 </r>
       <r>   -6.9562    1.0000 </r>
       <r>   -6.9041    1.0000 </r>
       <r>   -6.8157    1.0000 </r>
       <r>   -6.7510    1.0000 </r>
       <r>   -6.4117    1.0000 </r>
       <r>   -6.3347    1.0000 </r>
       <r>   -6.2762    1.0000 </r>
       <r>   -6.2734    1.0000 </r>
       <r>   -6.2649    1.0000 </r>
       <r>   -6.2417    1.0000 </r>
       <r>   -6.2356    1.0000 </r>
       <r>   -6.1715    1.0000 </r>
       <r>   -1.3299    1.0000 </r>
       <r>   -1.2685    1.0000 </r>
       <r>   -0.9665    1.0000 </r>
       <r>   -0.8496    1.0000 </r>
       <r>   -0.7356    1.0000 </r>
       <r>   -0.6978    1.0000 </r>
       <r>   -0.6464    1.0000 </r>
       <r>   -0.5575    1.0000 </r>
       <r>   -0.5521    1.0000 </r>
       <r>   -0.5499    1.0000 </r>
       <r>   -0.4907    1.0000 </r>
       <r>   -0.4846    1.0000 </r>
       <r>    5.4539    0.0000 </r>
       <r>    5.5532    0.0000 </r>
       <r>    5.6624    0.0000 </r>
       <r>    5.9483    0.0000 </r>
       <r>    5.9937    0.0000 </r>
       <r>    6.0842    0.0000 </r>
       <r>    6.1993    0.0000 </r>
       <r>    6.6987    0.0000 </r>
      </set>
      <set comment="kpoint 25">
       <r>  -19.7489    1.0000 </r>
       <r>  -19.7295    1.0000 </r>
       <r>  -19.7188    1.0000 </r>
       <r>  -19.6671    1.0000 </r>
       <r>  -12.5708    1.0000 </r>
       <r>  -12.5602    1.0000 </r>
       <r>  -12.5505    1.0000 </r>
       <r>  -12.4951    1.0000 </r>
       <r>   -6.9400    1.0000 </r>
       <r>   -6.8103    1.0000 </r>
       <r>   -6.7185    1.0000 </r>
       <r>   -6.7157    1.0000 </r>
       <r>   -6.5006    1.0000 </r>
       <r>   -6.3918    1.0000 </r>
       <r>   -6.3893    1.0000 </r>
       <r>   -6.2803    1.0000 </r>
       <r>   -6.2710    1.0000 </r>
       <r>   -6.2573    1.0000 </r>
       <r>   -6.2224    1.0000 </r>
       <r>   -6.1831    1.0000 </r>
       <r>   -1.2292    1.0000 </r>
       <r>   -1.1183    1.0000 </r>
       <r>   -1.0130    1.0000 </r>
       <r>   -0.8826    1.0000 </r>
       <r>   -0.8454    1.0000 </r>
       <r>   -0.6820    1.0000 </r>
       <r>   -0.6181    1.0000 </r>
       <r>   -0.5749    1.0000 </r>
       <r>   -0.5548    1.0000 </r>
       <r>   -0.5484    1.0000 </r>
       <r>   -0.5462    1.0000 </r>
       <r>   -0.5428    1.0000 </r>
       <r>    5.8051    0.0000 </r>
       <r>    5.8823    0.0000 </r>
       <r>    6.0456    0.0000 </r>
       <r>    6.0912    0.0000 </r>
       <r>    6.1172    0.0000 </r>
       <r>    6.1896    0.0000 </r>
       <r>    6.2400    0.0000 </r>
       <r>    6.5642    0.0000 </r>
      </set>
      <set comment="kpoint 26">
       <r>  -19.7511    1.0000 </r>
       <r>  -19.7219    1.0000 </r>
       <r>  -19.7107    1.0000 </r>
       <r>  -19.6810    1.0000 </r>
       <r>  -12.5674    1.0000 </r>
       <r>  -12.5496    1.0000 </r>
       <r>  -12.5382    1.0000 </r>
       <r>  -12.5218    1.0000 </r>
       <r>   -6.9140    1.0000 </r>
       <r>   -6.6996    1.0000 </r>
       <r>   -6.6428    1.0000 </r>
       <r>   -6.6164    1.0000 </r>
       <r>   -6.5845    1.0000 </r>
       <r>   -6.5406    1.0000 </r>
       <r>   -6.4839    1.0000 </r>
       <r>   -6.2923    1.0000 </r>
       <r>   -6.2599    1.0000 </r>
       <r>   -6.2464    1.0000 </r>
       <r>   -6.2221    1.0000 </r>
       <r>   -6.2039    1.0000 </r>
       <r>   -1.1360    1.0000 </r>
       <r>   -1.0362    1.0000 </r>
       <r>   -1.0257    1.0000 </r>
       <r>   -1.0086    1.0000 </r>
       <r>   -0.8254    1.0000 </r>
       <r>   -0.7018    1.0000 </r>
       <r>   -0.6667    1.0000 </r>
       <r>   -0.5882    1.0000 </r>
       <r>   -0.5782    1.0000 </r>
       <r>   -0.5426    1.0000 </r>
       <r>   -0.5314    1.0000 </r>
       <r>   -0.5072    1.0000 </r>
       <r>    5.5723    0.0000 </r>
       <r>    6.0565    0.0000 </r>
       <r>    6.0793    0.0000 </r>
       <r>    6.1400    0.0000 </r>
       <r>    6.2534    0.0000 </r>
       <r>    6.5110    0.0000 </r>
       <r>    6.5803    0.0000 </r>
       <r>    6.5974    0.0000 </r>
      </set>
      <set comment="kpoint 27">
       <r>  -19.7702    1.0000 </r>
       <r>  -19.7021    1.0000 </r>
       <r>  -19.6973    1.0000 </r>
       <r>  -19.6947    1.0000 </r>
       <r>  -12.5631    1.0000 </r>
       <r>  -12.5505    1.0000 </r>
       <r>  -12.5390    1.0000 </r>
       <r>  -12.5264    1.0000 </r>
       <r>   -6.8708    1.0000 </r>
       <r>   -6.7936    1.0000 </r>
       <r>   -6.7741    1.0000 </r>
       <r>   -6.6144    1.0000 </r>
       <r>   -6.5413    1.0000 </r>
       <r>   -6.4501    1.0000 </r>
       <r>   -6.3980    1.0000 </r>
       <r>   -6.3090    1.0000 </r>
       <r>   -6.2510    1.0000 </r>
       <r>   -6.2350    1.0000 </r>
       <r>   -6.2272    1.0000 </r>
       <r>   -6.2247    1.0000 </r>
       <r>   -1.2843    1.0000 </r>
       <r>   -1.0881    1.0000 </r>
       <r>   -1.0661    1.0000 </r>
       <r>   -0.7826    1.0000 </r>
       <r>   -0.7654    1.0000 </r>
       <r>   -0.7557    1.0000 </r>
       <r>   -0.7388    1.0000 </r>
       <r>   -0.5757    1.0000 </r>
       <r>   -0.5654    1.0000 </r>
       <r>   -0.5412    1.0000 </r>
       <r>   -0.4890    1.0000 </r>
       <r>   -0.4614    1.0000 </r>
       <r>    5.3572    0.0000 </r>
[...]
       <r>   -1.1239    1.0000 </r>
       <r>   -1.1159    1.0000 </r>
       <r>   -0.9507    1.0000 </r>
       <r>   -0.9373    1.0000 </r>
       <r>   -0.7922    1.0000 </r>
       <r>   -0.7737    1.0000 </r>
       <r>   -0.5694    1.0000 </r>
       <r>   -0.5291    1.0000 </r>
       <r>    6.1485    0.0000 </r>
       <r>    6.5608    0.0000 </r>
       <r>    6.6623    0.0000 </r>
       <r>    6.7192    0.0000 </r>
       <r>    6.7376    0.0000 </r>
       <r>    6.7665    0.0000 </r>
       <r>    7.1730    0.0000 </r>
       <r>    7.1921    0.0000 </r>
      </set>
      <set comment="kpoint 151">
       <r>  -19.6948    1.0000 </r>
       <r>  -19.6598    1.0000 </r>
       <r>  -19.6465    1.0000 </r>
       <r>  -19.6175    1.0000 </r>
       <r>  -12.5488    1.0000 </r>
       <r>  -12.4862    1.0000 </r>
       <r>  -12.4639    1.0000 </r>
       <r>  -12.4255    1.0000 </r>
       <r>   -6.9628    1.0000 </r>
       <r>   -6.9565    1.0000 </r>
       <r>   -6.8854    1.0000 </r>
       <r>   -6.8846    1.0000 </r>
       <r>   -6.8755    1.0000 </r>
       <r>   -6.8088    1.0000 </r>
       <r>   -6.7604    1.0000 </r>
       <r>   -6.6643    1.0000 </r>
       <r>   -6.3964    1.0000 </r>
       <r>   -6.2903    1.0000 </r>
       <r>   -6.2552    1.0000 </r>
       <r>   -6.2365    1.0000 </r>
       <r>   -1.2942    1.0000 </r>
       <r>   -1.2707    1.0000 </r>
       <r>   -1.2344    1.0000 </r>
       <r>   -1.0453    1.0000 </r>
       <r>   -1.0213    1.0000 </r>
       <r>   -1.0106    1.0000 </r>
       <r>   -0.9898    1.0000 </r>
       <r>   -0.9203    1.0000 </r>
       <r>   -0.7872    1.0000 </r>
       <r>   -0.6730    1.0000 </r>
       <r>   -0.5776    1.0000 </r>
       <r>   -0.5366    1.0000 </r>
       <r>    6.2366    0.0000 </r>
       <r>    6.2810    0.0000 </r>
       <r>    6.2981    0.0000 </r>
       <r>    6.3912    0.0000 </r>
       <r>    6.4531    0.0000 </r>
       <r>    7.0898    0.0000 </r>
       <r>    7.1210    0.0000 </r>
       <r>    7.2392    0.0000 </r>
      </set>
      <set comment="kpoint 152">
       <r>  -19.7002    1.0000 </r>
       <r>  -19.6645    1.0000 </r>
       <r>  -19.6528    1.0000 </r>
       <r>  -19.6006    1.0000 </r>
       <r>  -12.5583    1.0000 </r>
       <r>  -12.4914    1.0000 </r>
       <r>  -12.4706    1.0000 </r>
       <r>  -12.4028    1.0000 </r>
       <r>   -7.0023    1.0000 </r>
       <r>   -6.9717    1.0000 </r>
       <r>   -6.9657    1.0000 </r>
       <r>   -6.8650    1.0000 </r>
       <r>   -6.8445    1.0000 </r>
       <r>   -6.8400    1.0000 </r>
       <r>   -6.7886    1.0000 </r>
       <r>   -6.7623    1.0000 </r>
       <r>   -6.3795    1.0000 </r>
       <r>   -6.2032    1.0000 </r>
       <r>   -6.1524    1.0000 </r>
       <r>   -6.1480    1.0000 </r>
       <r>   -1.3992    1.0000 </r>
       <r>   -1.3660    1.0000 </r>
       <r>   -1.3142    1.0000 </r>
       <r>   -1.2974    1.0000 </r>
       <r>   -0.9837    1.0000 </r>
       <r>   -0.9040    1.0000 </r>
       <r>   -0.8676    1.0000 </r>
       <r>   -0.8437    1.0000 </r>
       <r>   -0.7398    1.0000 </r>
       <r>   -0.5502    1.0000 </r>
       <r>   -0.5382    1.0000 </r>
       <r>   -0.5226    1.0000 </r>
       <r>    5.8391    0.0000 </r>
       <r>    5.8957    0.0000 </r>
       <r>    5.9446    0.0000 </r>
       <r>    6.1004    0.0000 </r>
       <r>    6.3075    0.0000 </r>
       <r>    7.1972    0.0000 </r>
       <r>    7.2770    0.0000 </r>
       <r>    7.6245    0.0000 </r>
      </set>
     </set>
    </set>
   </array>
  </eigenvalues>
  <separator name="orbital magnetization" >
   <v name="MAGDIPOLOUT">      0.00000000      0.00000000      0.00000000</v>
  </separator>
  <dos>
   <i name="efermi">     -0.34626450 </i>
   <total>
    <array>
     <dimension dim="1">gridpoints</dimension>
     <dimension dim="2">spin</dimension>
     <field>energy</field>
     <field>total</field>
     <field>integrated</field>
     <set>
      <set comment="spin 1">
       <r>   -21.1715     0.0000     0.0000 </r>
       <r>   -21.0707     0.0000     0.0000 </r>
       <r>   -20.9698     0.0000     0.0000 </r>
       <r>   -20.8690     0.0000     0.0000 </r>
       <r>   -20.7681     0.0000     0.0000 </r>
       <r>   -20.6673     0.0000     0.0000 </r>
       <r>   -20.5664     0.0000     0.0000 </r>
       <r>   -20.4656     0.0000     0.0000 </r>
       <r>   -20.3647     0.0000     0.0000 </r>
       <r>   -20.2639     0.0000     0.0000 </r>
       <r>   -20.1630     0.0000     0.0000 </r>
       <r>   -20.0622     0.0000     0.0000 </r>
       <r>   -19.9613     0.0000     0.0000 </r>
       <r>   -19.8605     0.0000     0.0000 </r>
       <r>   -19.7596     4.4823     0.4520 </r>
       <r>   -19.6588    48.8510     5.9733 </r>
       <r>   -19.5579     8.3289     8.0000 </r>
       <r>   -19.4571     0.0000     8.0000 </r>
       <r>   -19.3562     0.0000     8.0000 </r>
       <r>   -19.2554     0.0000     8.0000 </r>
       <r>   -19.1545     0.0000     8.0000 </r>
       <r>   -19.0537     0.0000     8.0000 </r>
       <r>   -18.9528     0.0000     8.0000 </r>
       <r>   -18.8520     0.0000     8.0000 </r>
       <r>   -18.7511     0.0000     8.0000 </r>
       <r>   -18.6503     0.0000     8.0000 </r>
       <r>   -18.5494     0.0000     8.0000 </r>
       <r>   -18.4486     0.0000     8.0000 </r>
       <r>   -18.3477     0.0000     8.0000 </r>
       <r>   -18.2469     0.0000     8.0000 </r>
       <r>   -18.1460     0.0000     8.0000 </r>
       <r>   -18.0452     0.0000     8.0000 </r>
       <r>   -17.9443     0.0000     8.0000 </r>
       <r>   -17.8435     0.0000     8.0000 </r>
       <r>   -17.7427     0.0000     8.0000 </r>
       <r>   -17.6418     0.0000     8.0000 </r>
       <r>   -17.5410     0.0000     8.0000 </r>
       <r>   -17.4401     0.0000     8.0000 </r>
       <r>   -17.3393     0.0000     8.0000 </r>
       <r>   -17.2384     0.0000     8.0000 </r>
       <r>   -17.1376     0.0000     8.0000 </r>
       <r>   -17.0367     0.0000     8.0000 </r>
       <r>   -16.9359     0.0000     8.0000 </r>
       <r>   -16.8350     0.0000     8.0000 </r>
       <r>   -16.7342     0.0000     8.0000 </r>
       <r>   -16.6333     0.0000     8.0000 </r>
       <r>   -16.5325     0.0000     8.0000 </r>
       <r>   -16.4316     0.0000     8.0000 </r>
       <r>   -16.3308     0.0000     8.0000 </r>
       <r>   -16.2299     0.0000     8.0000 </r>
       <r>   -16.1291     0.0000     8.0000 </r>
       <r>   -16.0282     0.0000     8.0000 </r>
       <r>   -15.9274     0.0000     8.0000 </r>
       <r>   -15.8265     0.0000     8.0000 </r>
       <r>   -15.7257     0.0000     8.0000 </r>
       <r>   -15.6248     0.0000     8.0000 </r>
       <r>   -15.5240     0.0000     8.0000 </r>
       <r>   -15.4231     0.0000     8.0000 </r>
       <r>   -15.3223     0.0000     8.0000 </r>
       <r>   -15.2214     0.0000     8.0000 </r>
       <r>   -15.1206     0.0000     8.0000 </r>
       <r>   -15.0197     0.0000     8.0000 </r>
       <r>   -14.9189     0.0000     8.0000 </r>
       <r>   -14.8180     0.0000     8.0000 </r>
       <r>   -14.7172     0.0000     8.0000 </r>
       <r>   -14.6163     0.0000     8.0000 </r>
       <r>   -14.5155     0.0000     8.0000 </r>
       <r>   -14.4146     0.0000     8.0000 </r>
       <r>   -14.3138     0.0000     8.0000 </r>
       <r>   -14.2130     0.0000     8.0000 </r>
       <r>   -14.1121     0.0000     8.0000 </r>
       <r>   -14.0113     0.0000     8.0000 </r>
       <r>   -13.9104     0.0000     8.0000 </r>
       <r>   -13.8096     0.0000     8.0000 </r>
       <r>   -13.7087     0.0000     8.0000 </r>
       <r>   -13.6079     0.0000     8.0000 </r>
       <r>   -13.5070     0.0000     8.0000 </r>
       <r>   -13.4062     0.0000     8.0000 </r>
       <r>   -13.3053     0.0000     8.0000 </r>
       <r>   -13.2045     0.0000     8.0000 </r>
       <r>   -13.1036     0.0000     8.0000 </r>
       <r>   -13.0028     0.0000     8.0000 </r>
       <r>   -12.9019     0.0000     8.0000 </r>
       <r>   -12.8011     0.0000     8.0000 </r>
       <r>   -12.7002     0.0000     8.0000 </r>
       <r>   -12.5994     0.0847     8.0085 </r>
       <r>   -12.4985    48.5399    13.2419 </r>
       <r>   -12.3977    16.8578    15.9602 </r>
       <r>   -12.2968     0.0000    16.0000 </r>
       <r>   -12.1960     0.0000    16.0000 </r>
       <r>   -12.0951     0.0000    16.0000 </r>
       <r>   -11.9943     0.0000    16.0000 </r>
       <r>   -11.8934     0.0000    16.0000 </r>
       <r>   -11.7926     0.0000    16.0000 </r>
       <r>   -11.6917     0.0000    16.0000 </r>
       <r>   -11.5909     0.0000    16.0000 </r>
       <r>   -11.4900     0.0000    16.0000 </r>
       <r>   -11.3892     0.0000    16.0000 </r>
       <r>   -11.2883     0.0000    16.0000 </r>
       <r>   -11.1875     0.0000    16.0000 </r>
       <r>   -11.0866     0.0000    16.0000 </r>
       <r>   -10.9858     0.0000    16.0000 </r>
       <r>   -10.8849     0.0000    16.0000 </r>
       <r>   -10.7841     0.0000    16.0000 </r>
       <r>   -10.6832     0.0000    16.0000 </r>
       <r>   -10.5824     0.0000    16.0000 </r>
       <r>   -10.4816     0.0000    16.0000 </r>
       <r>   -10.3807     0.0000    16.0000 </r>
       <r>   -10.2799     0.0000    16.0000 </r>
       <r>   -10.1790     0.0000    16.0000 </r>
       <r>   -10.0782     0.0000    16.0000 </r>
       <r>    -9.9773     0.0000    16.0000 </r>
       <r>    -9.8765     0.0000    16.0000 </r>
       <r>    -9.7756     0.0000    16.0000 </r>
       <r>    -9.6748     0.0000    16.0000 </r>
       <r>    -9.5739     0.0000    16.0000 </r>
       <r>    -9.4731     0.0000    16.0000 </r>
       <r>    -9.3722     0.0000    16.0000 </r>
       <r>    -9.2714     0.0000    16.0000 </r>
       <r>    -9.1705     0.0000    16.0000 </r>
       <r>    -9.0697     0.0000    16.0000 </r>
       <r>    -8.9688     0.0000    16.0000 </r>
       <r>    -8.8680     0.0000    16.0000 </r>
       <r>    -8.7671     0.0000    16.0000 </r>
       <r>    -8.6663     0.0000    16.0000 </r>
       <r>    -8.5654     0.0000    16.0000 </r>
       <r>    -8.4646     0.0000    16.0000 </r>
       <r>    -8.3637     0.0000    16.0000 </r>
       <r>    -8.2629     0.0000    16.0000 </r>
       <r>    -8.1620     0.0000    16.0000 </r>
       <r>    -8.0612     0.0000    16.0000 </r>
       <r>    -7.9603     0.0000    16.0000 </r>
       <r>    -7.8595     0.0000    16.0000 </r>
       <r>    -7.7586     0.0000    16.0000 </r>
       <r>    -7.6578     0.0000    16.0000 </r>
       <r>    -7.5569     0.0000    16.0000 </r>
       <r>    -7.4561     0.0000    16.0000 </r>
       <r>    -7.3552     0.0000    16.0000 </r>
       <r>    -7.2544     0.0000    16.0000 </r>
       <r>    -7.1535     0.0000    16.0000 </r>
       <r>    -7.0527     0.0004    16.0000 </r>
       <r>    -6.9518     9.9144    17.0132 </r>
       <r>    -6.8510    33.0732    20.6955 </r>
       <r>    -6.7502    23.4756    23.8876 </r>
       <r>    -6.6493    19.0347    26.4932 </r>
       <r>    -6.5485    17.0887    28.4901 </r>
       <r>    -6.4476    17.7175    30.5735 </r>
       <r>    -6.3468    19.9379    32.9441 </r>
       <r>    -6.2459    24.7023    35.8113 </r>
       <r>    -6.1451    25.2948    39.1444 </r>
       <r>    -6.0442     4.6932    40.0000 </r>
       <r>    -5.9434     0.0000    40.0000 </r>
       <r>    -5.8425     0.0000    40.0000 </r>
       <r>    -5.7417     0.0000    40.0000 </r>
       <r>    -5.6408     0.0000    40.0000 </r>
       <r>    -5.5400     0.0000    40.0000 </r>
       <r>    -5.4391     0.0000    40.0000 </r>
       <r>    -5.3383     0.0000    40.0000 </r>
       <r>    -5.2374     0.0000    40.0000 </r>
       <r>    -5.1366     0.0000    40.0000 </r>
       <r>    -5.0357     0.0000    40.0000 </r>
       <r>    -4.9349     0.0000    40.0000 </r>
       <r>    -4.8340     0.0000    40.0000 </r>
       <r>    -4.7332     0.0000    40.0000 </r>
       <r>    -4.6323     0.0000    40.0000 </r>
       <r>    -4.5315     0.0000    40.0000 </r>
       <r>    -4.4306     0.0000    40.0000 </r>
       <r>    -4.3298     0.0000    40.0000 </r>
       <r>    -4.2289     0.0000    40.0000 </r>
       <r>    -4.1281     0.0000    40.0000 </r>
       <r>    -4.0272     0.0000    40.0000 </r>
       <r>    -3.9264     0.0000    40.0000 </r>
       <r>    -3.8255     0.0000    40.0000 </r>
       <r>    -3.7247     0.0000    40.0000 </r>
       <r>    -3.6238     0.0000    40.0000 </r>
       <r>    -3.5230     0.0000    40.0000 </r>
       <r>    -3.4221     0.0000    40.0000 </r>
       <r>    -3.3213     0.0000    40.0000 </r>
       <r>    -3.2205     0.0000    40.0000 </r>
       <r>    -3.1196     0.0000    40.0000 </r>
       <r>    -3.0188     0.0000    40.0000 </r>
       <r>    -2.9179     0.0000    40.0000 </r>
       <r>    -2.8171     0.0000    40.0000 </r>
       <r>    -2.7162     0.0000    40.0000 </r>
       <r>    -2.6154     0.0000    40.0000 </r>
       <r>    -2.5145     0.0000    40.0000 </r>
       <r>    -2.4137     0.0000    40.0000 </r>
       <r>    -2.3128     0.0000    40.0000 </r>
       <r>    -2.2120     0.0000    40.0000 </r>
       <r>    -2.1111     0.0000    40.0000 </r>
       <r>    -2.0103     0.0000    40.0000 </r>
       <r>    -1.9094     0.0000    40.0000 </r>
       <r>    -1.8086     0.0000    40.0000 </r>
       <r>    -1.7077     0.0000    40.0000 </r>
       <r>    -1.6069     0.0000    40.0000 </r>
       <r>    -1.5060     0.2339    40.0236 </r>
       <r>    -1.4052     2.3765    40.2663 </r>
       <r>    -1.3043     5.6821    41.0131 </r>
       <r>    -1.2035    12.1815    42.3886 </r>
       <r>    -1.1026    20.7208    44.7164 </r>
       <r>    -1.0018    28.4071    48.0383 </r>
       <r>    -0.9009    14.9700    50.1898 </r>
       <r>    -0.8001    18.0765    52.4098 </r>
       <r>    -0.6992    19.7176    54.8953 </r>
       <r>    -0.5984    20.5401    57.6448 </r>
       <r>    -0.4975    46.0833    62.9276 </r>
       <r>    -0.3967     6.2248    63.9878 </r>
       <r>    -0.2958     0.0000    64.0000 </r>
       <r>    -0.1950     0.0000    64.0000 </r>
       <r>    -0.0941     0.0000    64.0000 </r>
       <r>     0.0067     0.0000    64.0000 </r>
       <r>     0.1076     0.0000    64.0000 </r>
       <r>     0.2084     0.0000    64.0000 </r>
       <r>     0.3093     0.0000    64.0000 </r>
       <r>     0.4101     0.0000    64.0000 </r>
       <r>     0.5109     0.0000    64.0000 </r>
       <r>     0.6118     0.0000    64.0000 </r>
       <r>     0.7126     0.0000    64.0000 </r>
       <r>     0.8135     0.0000    64.0000 </r>
       <r>     0.9143     0.0000    64.0000 </r>
       <r>     1.0152     0.0000    64.0000 </r>
       <r>     1.1160     0.0000    64.0000 </r>
       <r>     1.2169     0.0000    64.0000 </r>
       <r>     1.3177     0.0000    64.0000 </r>
       <r>     1.4186     0.0000    64.0000 </r>
       <r>     1.5194     0.0000    64.0000 </r>
       <r>     1.6203     0.0000    64.0000 </r>
       <r>     1.7211     0.0000    64.0000 </r>
       <r>     1.8220     0.0000    64.0000 </r>
       <r>     1.9228     0.0000    64.0000 </r>
       <r>     2.0237     0.0000    64.0000 </r>
       <r>     2.1245     0.0000    64.0000 </r>
       <r>     2.2254     0.0000    64.0000 </r>
       <r>     2.3262     0.0000    64.0000 </r>
       <r>     2.4271     0.0000    64.0000 </r>
       <r>     2.5279     0.0000    64.0000 </r>
       <r>     2.6288     0.0000    64.0000 </r>
       <r>     2.7296     0.0000    64.0000 </r>
       <r>     2.8305     0.0000    64.0000 </r>
       <r>     2.9313     0.0000    64.0000 </r>
       <r>     3.0322     0.0000    64.0000 </r>
       <r>     3.1330     0.0000    64.0000 </r>
       <r>     3.2339     0.0000    64.0000 </r>
       <r>     3.3347     0.0000    64.0000 </r>
       <r>     3.4356     0.0000    64.0000 </r>
       <r>     3.5364     0.0000    64.0000 </r>
       <r>     3.6373     0.0000    64.0000 </r>
       <r>     3.7381     0.0000    64.0000 </r>
       <r>     3.8390     0.0000    64.0000 </r>
       <r>     3.9398     0.0000    64.0000 </r>
       <r>     4.0407     0.0000    64.0000 </r>
       <r>     4.1415     0.0000    64.0000 </r>
       <r>     4.2423     0.0000    64.0000 </r>
       <r>     4.3432     0.0000    64.0000 </r>
       <r>     4.4440     0.0000    64.0000 </r>
       <r>     4.5449     0.0000    64.0000 </r>
       <r>     4.6457     0.0000    64.0000 </r>
       <r>     4.7466     0.0000    64.0000 </r>
       <r>     4.8474     0.0661    64.0067 </r>
       <r>     4.9483     0.0000    64.0067 </r>
       <r>     5.0491     0.6409    64.0713 </r>
       <r>     5.1500     0.5288    64.1267 </r>
       <r>     5.2508     1.5165    64.2796 </r>
       <r>     5.3517     0.7042    64.4377 </r>
       <r>     5.4525     1.8021    64.6817 </r>
       <r>     5.5534     1.3258    64.8604 </r>
       <r>     5.6542     2.5966    65.2219 </r>
       <r>     5.7551     4.7002    65.8540 </r>
       <r>     5.8559     5.2360    66.5214 </r>
       <r>     5.9568     8.7905    67.5999 </r>
       <r>     6.0576    10.2580    68.7612 </r>
       <r>     6.1585     8.3925    69.8531 </r>
       <r>     6.2593     7.6913    70.9557 </r>
       <r>     6.3602     6.3619    71.7949 </r>
       <r>     6.4610     7.0340    72.7028 </r>
       <r>     6.5619     8.8714    73.8080 </r>
       <r>     6.6627     8.4165    74.9088 </r>
       <r>     6.7636     8.1575    76.0027 </r>
       <r>     6.8644     7.5351    77.0066 </r>
       <r>     6.9653     7.0449    77.9305 </r>
       <r>     7.0661     2.3542    78.2841 </r>
       <r>     7.1670     3.0859    78.6912 </r>
       <r>     7.2678     2.9880    79.1147 </r>
       <r>     7.3687     2.4521    79.4073 </r>
       <r>     7.4695     2.0827    79.6234 </r>
       <r>     7.5704     0.7009    79.7240 </r>
       <r>     7.6712     1.2642    79.8875 </r>
       <r>     7.7720     0.5287    80.0000 </r>
       <r>     7.8729     0.0000    80.0000 </r>
       <r>     7.9737     0.0000    80.0000 </r>
       <r>     8.0746     0.0000    80.0000 </r>
       <r>     8.1754     0.0000    80.0000 </r>
       <r>     8.2763     0.0000    80.0000 </r>
       <r>     8.3771     0.0000    80.0000 </r>
       <r>     8.4780     0.0000    80.0000 </r>
       <r>     8.5788     0.0000    80.0000 </r>
       <r>     8.6797     0.0000    80.0000 </r>
       <r>     8.7805     0.0000    80.0000 </r>
       <r>     8.8814     0.0000    80.0000 </r>
       <r>     8.9822     0.0000    80.0000 </r>
       <r>     9.0831     0.0000    80.0000 </r>
      </set>
     </set>
    </array>
   </total>
  </dos>
 </calculation>
 <structure name="finalpos" >
  <crystal>
   <varray name="basis" >
    <v>       8.28739668       0.00000000       0.00000000 </v>
    <v>      -4.14369834       8.28739668       0.00000000 </v>
    <v>       0.00000000       0.00000000       4.14369834 </v>
   </varray>
   <i name="volume">    284.59311253 </i>
   <varray name="rec_basis" >
    <v>       0.12066515       0.06033258      -0.00000000 </v>
    <v>       0.00000000       0.12066515       0.00000000 </v>
    <v>      -0.00000000      -0.00000000       0.24133031 </v>
   </varray>
  </crystal>
  <varray name="positions" >
   <v>       0.00000000       0.00098523       0.00098523 </v>
   <v>       0.50000000       0.00000000       0.00000000 </v>
   <v>       0.25000000       0.50000000       0.00000000 </v>
   <v>       0.75000000       0.50000000       0.00000000 </v>
   <v>       0.37500000       0.25000000       0.50000000 </v>
   <v>       0.87500000       0.25000000       0.50000000 </v>
   <v>       0.62500000       0.75000000       0.50000000 </v>
   <v>       0.12500000       0.75000000       0.50000000 </v>
  </varray>
 </structure>
</modeling>
