<?xml version="1.0" encoding="ISO-8859-1"?>
<modeling>
 <generator>
  <i name="program" type="string">vasp </i>
  <i name="version" type="string">6.4.3  </i>
  <i name="subversion" type="string">19Mar24 (build Jun 20 2024 15:56:09) complex                          parallel </i>
  <i name="platform" type="string">LinuxNV_CrayMPICH </i>
  <i name="date" type="string">2025 02 12 </i>
  <i name="time" type="string">10:47:58 </i>
 </generator>
 <incar>
  <i type="string" name="PREC">Accurate</i>
  <i type="int" name="IBRION">    -1</i>
  <i name="EDIFF">      0.00000010</i>
  <i type="int" name="NSW">     0</i>
  <i name="ENCUT">    900.00000000</i>
  <i type="logical" name="LREAL"> F  </i>
  <i type="int" name="ISMEAR">     0</i>
  <i name="SIGMA">      0.01000000</i>
  <i type="logical" name="LWAVE"> F  </i>
  <i type="logical" name="LCHARG"> F  </i>
  <i type="int" name="IVDW">    12</i>
 </incar>
 <primitive_cell>
  <structure name="primitive_cell" >
   <crystal>
    <varray name="basis" >
     <v>       1.95429405       3.38493658       0.00000000 </v>
     <v>      -2.93144107       1.69246829       0.00000000 </v>
     <v>       0.00000000       0.00000000       9.56312345 </v>
    </varray>
    <i name="volume">    126.52321019 </i>
    <varray name="rec_basis" >
     <v>       0.12792343       0.22156988      -0.00000000 </v>
     <v>      -0.25584686       0.14771325       0.00000000 </v>
     <v>       0.00000000      -0.00000000       0.10456835 </v>
    </varray>
   </crystal>
   <varray name="positions" >
    <v>       0.24908016       0.16574683       0.08241349 </v>
    <v>       0.50000000       0.66666667       0.08333333 </v>
    <v>       0.75000000       0.16666667       0.08333333 </v>
    <v>       0.00000000       0.66666667       0.08333333 </v>
    <v>       0.25000000       0.16666667       0.41666667 </v>
    <v>       0.50000000       0.66666667       0.41666667 </v>
    <v>       0.75000000       0.16666667       0.41666667 </v>
    <v>       0.00000000       0.66666667       0.41666667 </v>
    <v>       0.25000000       0.16666667       0.75000000 </v>
    <v>       0.50000000       0.66666667       0.75000000 </v>
    <v>       0.75000000       0.16666667       0.75000000 </v>
    <v>       0.00000000       0.66666667       0.75000000 </v>
    <v>       0.25000000       0.83333333       0.25000000 </v>
    <v>       0.50000000       0.33333333       0.25000000 </v>
    <v>       0.75000000       0.83333333       0.25000000 </v>
    <v>       0.00000000       0.33333333       0.25000000 </v>
    <v>       0.25000000       0.83333333       0.58333333 </v>
    <v>       0.50000000       0.33333333       0.58333333 </v>
    <v>       0.75000000       0.83333333       0.58333333 </v>
    <v>       0.00000000       0.33333333       0.58333333 </v>
    <v>       0.25000000       0.83333333       0.91666667 </v>
    <v>       0.50000000       0.33333333       0.91666667 </v>
    <v>       0.75000000       0.83333333       0.91666667 </v>
    <v>       0.00000000       0.33333333       0.91666667 </v>
   </varray>
  </structure>
  <varray name="primitive_index" >
   <v type="int" >        1 </v>
   <v type="int" >        2 </v>
   <v type="int" >        3 </v>
   <v type="int" >        4 </v>
   <v type="int" >        5 </v>
   <v type="int" >        6 </v>
   <v type="int" >        7 </v>
   <v type="int" >        8 </v>
   <v type="int" >        9 </v>
   <v type="int" >       10 </v>
   <v type="int" >       11 </v>
   <v type="int" >       12 </v>
   <v type="int" >       13 </v>
   <v type="int" >       14 </v>
   <v type="int" >       15 </v>
   <v type="int" >       16 </v>
   <v type="int" >       17 </v>
   <v type="int" >       18 </v>
   <v type="int" >       19 </v>
   <v type="int" >       20 </v>
   <v type="int" >       21 </v>
   <v type="int" >       22 </v>
   <v type="int" >       23 </v>
   <v type="int" >       24 </v>
  </varray>
 </primitive_cell>
 <kpoints>
  <generation param="Gamma">
   <v type="int" name="divisions">      11       12        4 </v>
   <v name="usershift">      0.00000000       0.00000000       0.00000000 </v>
   <v name="genvec1">      0.09090909      -0.00000000       0.00000000 </v>
   <v name="genvec2">      0.00000000       0.08333333       0.00000000 </v>
   <v name="genvec3">      0.00000000       0.00000000       0.25000000 </v>
   <v name="shift">      0.00000000       0.00000000       0.00000000 </v>
  </generation>
  <varray name="kpointlist" >
   <v>       0.00000000       0.00000000       0.00000000 </v>
   <v>       0.09090909       0.00000000       0.00000000 </v>
   <v>       0.18181818       0.00000000       0.00000000 </v>
   <v>       0.27272727       0.00000000       0.00000000 </v>
   <v>       0.36363636       0.00000000       0.00000000 </v>
   <v>       0.45454545       0.00000000       0.00000000 </v>
   <v>       0.00000000       0.08333333       0.00000000 </v>
   <v>       0.09090909       0.08333333       0.00000000 </v>
   <v>      -0.09090909       0.08333333       0.00000000 </v>
   <v>       0.18181818       0.08333333       0.00000000 </v>
   <v>      -0.18181818       0.08333333       0.00000000 </v>
   <v>       0.27272727       0.08333333       0.00000000 </v>
   <v>      -0.27272727       0.08333333       0.00000000 </v>
   <v>       0.36363636       0.08333333       0.00000000 </v>
   <v>      -0.36363636       0.08333333       0.00000000 </v>
   <v>       0.45454545       0.08333333       0.00000000 </v>
   <v>      -0.45454545       0.08333333       0.00000000 </v>
   <v>       0.00000000       0.16666667       0.00000000 </v>
   <v>       0.09090909       0.16666667       0.00000000 </v>
   <v>      -0.09090909       0.16666667       0.00000000 </v>
   <v>       0.18181818       0.16666667       0.00000000 </v>
   <v>      -0.18181818       0.16666667       0.00000000 </v>
   <v>       0.27272727       0.16666667       0.00000000 </v>
   <v>      -0.27272727       0.16666667       0.00000000 </v>
   <v>       0.36363636       0.16666667       0.00000000 </v>
   <v>      -0.36363636       0.16666667       0.00000000 </v>
   <v>       0.45454545       0.16666667       0.00000000 </v>
   <v>      -0.45454545       0.16666667       0.00000000 </v>
   <v>       0.00000000       0.25000000       0.00000000 </v>
   <v>       0.09090909       0.25000000       0.00000000 </v>
   <v>      -0.09090909       0.25000000       0.00000000 </v>
   <v>       0.18181818       0.25000000       0.00000000 </v>
   <v>      -0.18181818       0.25000000       0.00000000 </v>
   <v>       0.27272727       0.25000000       0.00000000 </v>
   <v>      -0.27272727       0.25000000       0.00000000 </v>
   <v>       0.36363636       0.25000000       0.00000000 </v>
   <v>      -0.36363636       0.25000000       0.00000000 </v>
   <v>       0.45454545       0.25000000       0.00000000 </v>
   <v>      -0.45454545       0.25000000       0.00000000 </v>
   <v>       0.00000000       0.33333333       0.00000000 </v>
   <v>       0.09090909       0.33333333       0.00000000 </v>
   <v>      -0.09090909       0.33333333       0.00000000 </v>
   <v>       0.18181818       0.33333333       0.00000000 </v>
   <v>      -0.18181818       0.33333333       0.00000000 </v>
   <v>       0.27272727       0.33333333       0.00000000 </v>
   <v>      -0.27272727       0.33333333       0.00000000 </v>
   <v>       0.36363636       0.33333333       0.00000000 </v>
   <v>      -0.36363636       0.33333333       0.00000000 </v>
   <v>       0.45454545       0.33333333       0.00000000 </v>
   <v>      -0.45454545       0.33333333       0.00000000 </v>
   <v>       0.00000000       0.41666667       0.00000000 </v>
   <v>       0.09090909       0.41666667       0.00000000 </v>
   <v>      -0.09090909       0.41666667       0.00000000 </v>
   <v>       0.18181818       0.41666667       0.00000000 </v>
   <v>      -0.18181818       0.41666667       0.00000000 </v>
   <v>       0.27272727       0.41666667       0.00000000 </v>
   <v>      -0.27272727       0.41666667       0.00000000 </v>
   <v>       0.36363636       0.41666667       0.00000000 </v>
   <v>      -0.36363636       0.41666667       0.00000000 </v>
   <v>       0.45454545       0.41666667       0.00000000 </v>
   <v>      -0.45454545       0.41666667       0.00000000 </v>
   <v>       0.00000000       0.50000000       0.00000000 </v>
   <v>       0.09090909       0.50000000       0.00000000 </v>
   <v>       0.18181818       0.50000000       0.00000000 </v>
   <v>       0.27272727       0.50000000       0.00000000 </v>
   <v>       0.36363636       0.50000000       0.00000000 </v>
   <v>       0.45454545       0.50000000       0.00000000 </v>
   <v>       0.00000000       0.00000000       0.25000000 </v>
   <v>       0.09090909       0.00000000       0.25000000 </v>
   <v>       0.09090909       0.00000000      -0.25000000 </v>
   <v>       0.18181818       0.00000000       0.25000000 </v>
   <v>       0.18181818       0.00000000      -0.25000000 </v>
   <v>       0.27272727       0.00000000       0.25000000 </v>
   <v>       0.27272727       0.00000000      -0.25000000 </v>
   <v>       0.36363636       0.00000000       0.25000000 </v>
   <v>       0.36363636       0.00000000      -0.25000000 </v>
   <v>       0.45454545       0.00000000       0.25000000 </v>
   <v>       0.45454545       0.00000000      -0.25000000 </v>
   <v>       0.00000000       0.08333333       0.25000000 </v>
   <v>       0.00000000       0.08333333      -0.25000000 </v>
   <v>       0.09090909       0.08333333       0.25000000 </v>
   <v>      -0.09090909       0.08333333      -0.25000000 </v>
   <v>       0.09090909      -0.08333333      -0.25000000 </v>
   <v>      -0.09090909      -0.08333333       0.25000000 </v>
   <v>       0.18181818       0.08333333       0.25000000 </v>
   <v>      -0.18181818       0.08333333      -0.25000000 </v>
   <v>       0.18181818      -0.08333333      -0.25000000 </v>
   <v>      -0.18181818      -0.08333333       0.25000000 </v>
   <v>       0.27272727       0.08333333       0.25000000 </v>
   <v>      -0.27272727       0.08333333      -0.25000000 </v>
   <v>       0.27272727      -0.08333333      -0.25000000 </v>
   <v>      -0.27272727      -0.08333333       0.25000000 </v>
   <v>       0.36363636       0.08333333       0.25000000 </v>
   <v>      -0.36363636       0.08333333      -0.25000000 </v>
   <v>       0.36363636      -0.08333333      -0.25000000 </v>
   <v>      -0.36363636      -0.08333333       0.25000000 </v>
   <v>       0.45454545       0.08333333       0.25000000 </v>
   <v>      -0.45454545       0.08333333      -0.25000000 </v>
   <v>       0.45454545      -0.08333333      -0.25000000 </v>
   <v>      -0.45454545      -0.08333333       0.25000000 </v>
   <v>       0.00000000       0.16666667       0.25000000 </v>
   <v>       0.00000000       0.16666667      -0.25000000 </v>
   <v>       0.09090909       0.16666667       0.25000000 </v>
   <v>      -0.09090909       0.16666667      -0.25000000 </v>
   <v>       0.09090909      -0.16666667      -0.25000000 </v>
   <v>      -0.09090909      -0.16666667       0.25000000 </v>
   <v>       0.18181818       0.16666667       0.25000000 </v>
   <v>      -0.18181818       0.16666667      -0.25000000 </v>
   <v>       0.18181818      -0.16666667      -0.25000000 </v>
   <v>      -0.18181818      -0.16666667       0.25000000 </v>
   <v>       0.27272727       0.16666667       0.25000000 </v>
   <v>      -0.27272727       0.16666667      -0.25000000 </v>
   <v>       0.27272727      -0.16666667      -0.25000000 </v>
   <v>      -0.27272727      -0.16666667       0.25000000 </v>
   <v>       0.36363636       0.16666667       0.25000000 </v>
   <v>      -0.36363636       0.16666667      -0.25000000 </v>
   <v>       0.36363636      -0.16666667      -0.25000000 </v>
   <v>      -0.36363636      -0.16666667       0.25000000 </v>
   <v>       0.45454545       0.16666667       0.25000000 </v>
   <v>      -0.45454545       0.16666667      -0.25000000 </v>
   <v>       0.45454545      -0.16666667      -0.25000000 </v>
   <v>      -0.45454545      -0.16666667       0.25000000 </v>
   <v>       0.00000000       0.25000000       0.25000000 </v>
   <v>       0.00000000       0.25000000      -0.25000000 </v>
   <v>       0.09090909       0.25000000       0.25000000 </v>
   <v>      -0.09090909       0.25000000      -0.25000000 </v>
   <v>       0.09090909      -0.25000000      -0.25000000 </v>
   <v>      -0.09090909      -0.25000000       0.25000000 </v>
   <v>       0.18181818       0.25000000       0.25000000 </v>
   <v>      -0.18181818       0.25000000      -0.25000000 </v>
   <v>       0.18181818      -0.25000000      -0.25000000 </v>
   <v>      -0.18181818      -0.25000000       0.25000000 </v>
   <v>       0.27272727       0.25000000       0.25000000 </v>
   <v>      -0.27272727       0.25000000      -0.25000000 </v>
   <v>       0.27272727      -0.25000000      -0.25000000 </v>
   <v>      -0.27272727      -0.25000000       0.25000000 </v>
   <v>       0.36363636       0.25000000       0.25000000 </v>
   <v>      -0.36363636       0.25000000      -0.25000000 </v>
   <v>       0.36363636      -0.25000000      -0.25000000 </v>
   <v>      -0.36363636      -0.25000000       0.25000000 </v>
   <v>       0.45454545       0.25000000       0.25000000 </v>
   <v>      -0.45454545       0.25000000      -0.25000000 </v>
   <v>       0.45454545      -0.25000000      -0.25000000 </v>
   <v>      -0.45454545      -0.25000000       0.25000000 </v>
   <v>       0.00000000       0.33333333       0.25000000 </v>
   <v>       0.00000000       0.33333333      -0.25000000 </v>
   <v>       0.09090909       0.33333333       0.25000000 </v>
   <v>      -0.09090909       0.33333333      -0.25000000 </v>
   <v>       0.09090909      -0.33333333      -0.25000000 </v>
   <v>      -0.09090909      -0.33333333       0.25000000 </v>
   <v>       0.18181818       0.33333333       0.25000000 </v>
   <v>      -0.18181818       0.33333333      -0.25000000 </v>
   <v>       0.18181818      -0.33333333      -0.25000000 </v>
   <v>      -0.18181818      -0.33333333       0.25000000 </v>
   <v>       0.27272727       0.33333333       0.25000000 </v>
   <v>      -0.27272727       0.33333333      -0.25000000 </v>
   <v>       0.27272727      -0.33333333      -0.25000000 </v>
   <v>      -0.27272727      -0.33333333       0.25000000 </v>
   <v>       0.36363636       0.33333333       0.25000000 </v>
   <v>      -0.36363636       0.33333333      -0.25000000 </v>
   <v>       0.36363636      -0.33333333      -0.25000000 </v>
   <v>      -0.36363636      -0.33333333       0.25000000 </v>
   <v>       0.45454545       0.33333333       0.25000000 </v>
   <v>      -0.45454545       0.33333333      -0.25000000 </v>
   <v>       0.45454545      -0.33333333      -0.25000000 </v>
   <v>      -0.45454545      -0.33333333       0.25000000 </v>
   <v>       0.00000000       0.41666667       0.25000000 </v>
   <v>       0.00000000       0.41666667      -0.25000000 </v>
   <v>       0.09090909       0.41666667       0.25000000 </v>
   <v>      -0.09090909       0.41666667      -0.25000000 </v>
   <v>       0.09090909      -0.41666667      -0.25000000 </v>
   <v>      -0.09090909      -0.41666667       0.25000000 </v>
   <v>       0.18181818       0.41666667       0.25000000 </v>
   <v>      -0.18181818       0.41666667      -0.25000000 </v>
   <v>       0.18181818      -0.41666667      -0.25000000 </v>
   <v>      -0.18181818      -0.41666667       0.25000000 </v>
   <v>       0.27272727       0.41666667       0.25000000 </v>
   <v>      -0.27272727       0.41666667      -0.25000000 </v>
   <v>       0.27272727      -0.41666667      -0.25000000 </v>
   <v>      -0.27272727      -0.41666667       0.25000000 </v>
   <v>       0.36363636       0.41666667       0.25000000 </v>
   <v>      -0.36363636       0.41666667      -0.25000000 </v>
   <v>       0.36363636      -0.41666667      -0.25000000 </v>
   <v>      -0.36363636      -0.41666667       0.25000000 </v>
   <v>       0.45454545       0.41666667       0.25000000 </v>
   <v>      -0.45454545       0.41666667      -0.25000000 </v>
   <v>       0.45454545      -0.41666667      -0.25000000 </v>
   <v>      -0.45454545      -0.41666667       0.25000000 </v>
   <v>       0.00000000       0.50000000       0.25000000 </v>
   <v>       0.09090909       0.50000000       0.25000000 </v>
   <v>       0.09090909       0.50000000      -0.25000000 </v>
   <v>       0.18181818       0.50000000       0.25000000 </v>
   <v>       0.18181818       0.50000000      -0.25000000 </v>
   <v>       0.27272727       0.50000000       0.25000000 </v>
   <v>       0.27272727       0.50000000      -0.25000000 </v>
   <v>       0.36363636       0.50000000       0.25000000 </v>
   <v>       0.36363636       0.50000000      -0.25000000 </v>
   <v>       0.45454545       0.50000000       0.25000000 </v>
   <v>       0.45454545       0.50000000      -0.25000000 </v>
   <v>       0.00000000       0.00000000       0.50000000 </v>
   <v>       0.09090909       0.00000000       0.50000000 </v>
   <v>       0.18181818       0.00000000       0.50000000 </v>
   <v>       0.27272727       0.00000000       0.50000000 </v>
   <v>       0.36363636       0.00000000       0.50000000 </v>
   <v>       0.45454545       0.00000000       0.50000000 </v>
   <v>       0.00000000       0.08333333       0.50000000 </v>
   <v>       0.09090909       0.08333333       0.50000000 </v>
   <v>      -0.09090909       0.08333333       0.50000000 </v>
   <v>       0.18181818       0.08333333       0.50000000 </v>
   <v>      -0.18181818       0.08333333       0.50000000 </v>
   <v>       0.27272727       0.08333333       0.50000000 </v>
   <v>      -0.27272727       0.08333333       0.50000000 </v>
   <v>       0.36363636       0.08333333       0.50000000 </v>
   <v>      -0.36363636       0.08333333       0.50000000 </v>
   <v>       0.45454545       0.08333333       0.50000000 </v>
   <v>      -0.45454545       0.08333333       0.50000000 </v>
   <v>       0.00000000       0.16666667       0.50000000 </v>
   <v>       0.09090909       0.16666667       0.50000000 </v>
   <v>      -0.09090909       0.16666667       0.50000000 </v>
   <v>       0.18181818       0.16666667       0.50000000 </v>
   <v>      -0.18181818       0.16666667       0.50000000 </v>
   <v>       0.27272727       0.16666667       0.50000000 </v>
   <v>      -0.27272727       0.16666667       0.50000000 </v>
   <v>       0.36363636       0.16666667       0.50000000 </v>
   <v>      -0.36363636       0.16666667       0.50000000 </v>
   <v>       0.45454545       0.16666667       0.50000000 </v>
   <v>      -0.45454545       0.16666667       0.50000000 </v>
   <v>       0.00000000       0.25000000       0.50000000 </v>
   <v>       0.09090909       0.25000000       0.50000000 </v>
   <v>      -0.09090909       0.25000000       0.50000000 </v>
   <v>       0.18181818       0.25000000       0.50000000 </v>
   <v>      -0.18181818       0.25000000       0.50000000 </v>
   <v>       0.27272727       0.25000000       0.50000000 </v>
   <v>      -0.27272727       0.25000000       0.50000000 </v>
   <v>       0.36363636       0.25000000       0.50000000 </v>
   <v>      -0.36363636       0.25000000       0.50000000 </v>
   <v>       0.45454545       0.25000000       0.50000000 </v>
   <v>      -0.45454545       0.25000000       0.50000000 </v>
   <v>       0.00000000       0.33333333       0.50000000 </v>
   <v>       0.09090909       0.33333333       0.50000000 </v>
   <v>      -0.09090909       0.33333333       0.50000000 </v>
   <v>       0.18181818       0.33333333       0.50000000 </v>
   <v>      -0.18181818       0.33333333       0.50000000 </v>
   <v>       0.27272727       0.33333333       0.50000000 </v>
   <v>      -0.27272727       0.33333333       0.50000000 </v>
   <v>       0.36363636       0.33333333       0.50000000 </v>
   <v>      -0.36363636       0.33333333       0.50000000 </v>
   <v>       0.45454545       0.33333333       0.50000000 </v>
   <v>      -0.45454545       0.33333333       0.50000000 </v>
   <v>       0.00000000       0.41666667       0.50000000 </v>
   <v>       0.09090909       0.41666667       0.50000000 </v>
   <v>      -0.09090909       0.41666667       0.50000000 </v>
   <v>       0.18181818       0.41666667       0.50000000 </v>
   <v>      -0.18181818       0.41666667       0.50000000 </v>
   <v>       0.27272727       0.41666667       0.50000000 </v>
   <v>      -0.27272727       0.41666667       0.50000000 </v>
   <v>       0.36363636       0.41666667       0.50000000 </v>
   <v>      -0.36363636       0.41666667       0.50000000 </v>
   <v>       0.45454545       0.41666667       0.50000000 </v>
   <v>      -0.45454545       0.41666667       0.50000000 </v>
   <v>       0.00000000       0.50000000       0.50000000 </v>
   <v>       0.09090909       0.50000000       0.50000000 </v>
   <v>       0.18181818       0.50000000       0.50000000 </v>
   <v>       0.27272727       0.50000000       0.50000000 </v>
   <v>       0.36363636       0.50000000       0.50000000 </v>
   <v>       0.45454545       0.50000000       0.50000000 </v>
  </varray>
  <varray name="weights" >
   <v>       0.00189394 </v>
   <v>       0.00378788 </v>
   <v>       0.00378788 </v>
   <v>       0.00378788 </v>
   <v>       0.00378788 </v>
   <v>       0.00378788 </v>
   <v>       0.00378788 </v>
   <v>       0.00378788 </v>
   <v>       0.00378788 </v>
   <v>       0.00378788 </v>
   <v>       0.00378788 </v>
   <v>       0.00378788 </v>
   <v>       0.00378788 </v>
   <v>       0.00378788 </v>
   <v>       0.00378788 </v>
   <v>       0.00378788 </v>
   <v>       0.00378788 </v>
   <v>       0.00378788 </v>
   <v>       0.00378788 </v>
   <v>       0.00378788 </v>
   <v>       0.00378788 </v>
   <v>       0.00378788 </v>
   <v>       0.00378788 </v>
   <v>       0.00378788 </v>
   <v>       0.00378788 </v>
   <v>       0.00378788 </v>
   <v>       0.00378788 </v>
   <v>       0.00378788 </v>
   <v>       0.00378788 </v>
   <v>       0.00378788 </v>
   <v>       0.00378788 </v>
   <v>       0.00378788 </v>
   <v>       0.00378788 </v>
   <v>       0.00378788 </v>
   <v>       0.00378788 </v>
   <v>       0.00378788 </v>
   <v>       0.00378788 </v>
   <v>       0.00378788 </v>
   <v>       0.00378788 </v>
   <v>       0.00378788 </v>
   <v>       0.00378788 </v>
   <v>       0.00378788 </v>
   <v>       0.00378788 </v>
   <v>       0.00378788 </v>
   <v>       0.00378788 </v>
   <v>       0.00378788 </v>
   <v>       0.00378788 </v>
   <v>       0.00378788 </v>
   <v>       0.00378788 </v>
   <v>       0.00378788 </v>
   <v>       0.00378788 </v>
   <v>       0.00378788 </v>
   <v>       0.00378788 </v>
   <v>       0.00378788 </v>
   <v>       0.00378788 </v>
   <v>       0.00378788 </v>
   <v>       0.00378788 </v>
   <v>       0.00378788 </v>
   <v>       0.00378788 </v>
   <v>       0.00378788 </v>
   <v>       0.00378788 </v>
   <v>       0.00189394 </v>
   <v>       0.00378788 </v>
   <v>       0.00378788 </v>
   <v>       0.00378788 </v>
   <v>       0.00378788 </v>
   <v>       0.00378788 </v>
   <v>       0.00378788 </v>
   <v>       0.00378788 </v>
   <v>       0.00378788 </v>
   <v>       0.00378788 </v>
   <v>       0.00378788 </v>
   <v>       0.00378788 </v>
   <v>       0.00378788 </v>
   <v>       0.00378788 </v>
   <v>       0.00378788 </v>
   <v>       0.00378788 </v>
   <v>       0.00378788 </v>
   <v>       0.00378788 </v>
   <v>       0.00378788 </v>
   <v>       0.00378788 </v>
   <v>       0.00378788 </v>
   <v>       0.00378788 </v>
   <v>       0.00378788 </v>
   <v>       0.00378788 </v>
   <v>       0.00378788 </v>
   <v>       0.00378788 </v>
   <v>       0.00378788 </v>
   <v>       0.00378788 </v>
   <v>       0.00378788 </v>
   <v>       0.00378788 </v>
   <v>       0.00378788 </v>
   <v>       0.00378788 </v>
   <v>       0.00378788 </v>
   <v>       0.00378788 </v>
   <v>       0.00378788 </v>
   <v>       0.00378788 </v>
   <v>       0.00378788 </v>
   <v>       0.00378788 </v>
   <v>       0.00378788 </v>
   <v>       0.00378788 </v>
   <v>       0.00378788 </v>
   <v>       0.00378788 </v>
   <v>       0.00378788 </v>
   <v>       0.00378788 </v>
   <v>       0.00378788 </v>
   <v>       0.00378788 </v>
   <v>       0.00378788 </v>
   <v>       0.00378788 </v>
   <v>       0.00378788 </v>
   <v>       0.00378788 </v>
   <v>       0.00378788 </v>
   <v>       0.00378788 </v>
   <v>       0.00378788 </v>
   <v>       0.00378788 </v>
   <v>       0.00378788 </v>
   <v>       0.00378788 </v>
   <v>       0.00378788 </v>
   <v>       0.00378788 </v>
   <v>       0.00378788 </v>
   <v>       0.00378788 </v>
   <v>       0.00378788 </v>
   <v>       0.00378788 </v>
   <v>       0.00378788 </v>
   <v>       0.00378788 </v>
   <v>       0.00378788 </v>
   <v>       0.00378788 </v>
   <v>       0.00378788 </v>
   <v>       0.00378788 </v>
   <v>       0.00378788 </v>
   <v>       0.00378788 </v>
   <v>       0.00378788 </v>
   <v>       0.00378788 </v>
   <v>       0.00378788 </v>
   <v>       0.00378788 </v>
   <v>       0.00378788 </v>
   <v>       0.00378788 </v>
   <v>       0.00378788 </v>
   <v>       0.00378788 </v>
   <v>       0.00378788 </v>
   <v>       0.00378788 </v>
   <v>       0.00378788 </v>
   <v>       0.00378788 </v>
   <v>       0.00378788 </v>
   <v>       0.00378788 </v>
   <v>       0.00378788 </v>
   <v>       0.00378788 </v>
   <v>       0.00378788 </v>
   <v>       0.00378788 </v>
   <v>       0.00378788 </v>
   <v>       0.00378788 </v>
   <v>       0.00378788 </v>
   <v>       0.00378788 </v>
   <v>       0.00378788 </v>
   <v>       0.00378788 </v>
   <v>       0.00378788 </v>
   <v>       0.00378788 </v>
   <v>       0.00378788 </v>
   <v>       0.00378788 </v>
   <v>       0.00378788 </v>
   <v>       0.00378788 </v>
   <v>       0.00378788 </v>
   <v>       0.00378788 </v>
   <v>       0.00378788 </v>
   <v>       0.00378788 </v>
   <v>       0.00378788 </v>
   <v>       0.00378788 </v>
   <v>       0.00378788 </v>
   <v>       0.00378788 </v>
   <v>       0.00378788 </v>
   <v>       0.00378788 </v>
   <v>       0.00378788 </v>
   <v>       0.00378788 </v>
   <v>       0.00378788 </v>
   <v>       0.00378788 </v>
   <v>       0.00378788 </v>
   <v>       0.00378788 </v>
   <v>       0.00378788 </v>
   <v>       0.00378788 </v>
   <v>       0.00378788 </v>
   <v>       0.00378788 </v>
   <v>       0.00378788 </v>
   <v>       0.00378788 </v>
   <v>       0.00378788 </v>
   <v>       0.00378788 </v>
   <v>       0.00378788 </v>
   <v>       0.00378788 </v>
   <v>       0.00378788 </v>
   <v>       0.00378788 </v>
   <v>       0.00378788 </v>
   <v>       0.00378788 </v>
   <v>       0.00378788 </v>
   <v>       0.00378788 </v>
   <v>       0.00378788 </v>
   <v>       0.00378788 </v>
   <v>       0.00378788 </v>
   <v>       0.00378788 </v>
   <v>       0.00378788 </v>
   <v>       0.00378788 </v>
   <v>       0.00189394 </v>
   <v>       0.00378788 </v>
   <v>       0.00378788 </v>
   <v>       0.00378788 </v>
   <v>       0.00378788 </v>
   <v>       0.00378788 </v>
   <v>       0.00378788 </v>
   <v>       0.00378788 </v>
   <v>       0.00378788 </v>
   <v>       0.00378788 </v>
   <v>       0.00378788 </v>
   <v>       0.00378788 </v>
   <v>       0.00378788 </v>
   <v>       0.00378788 </v>
   <v>       0.00378788 </v>
   <v>       0.00378788 </v>
   <v>       0.00378788 </v>
   <v>       0.00378788 </v>
   <v>       0.00378788 </v>
   <v>       0.00378788 </v>
   <v>       0.00378788 </v>
   <v>       0.00378788 </v>
   <v>       0.00378788 </v>
   <v>       0.00378788 </v>
   <v>       0.00378788 </v>
   <v>       0.00378788 </v>
   <v>       0.00378788 </v>
   <v>       0.00378788 </v>
   <v>       0.00378788 </v>
   <v>       0.00378788 </v>
   <v>       0.00378788 </v>
   <v>       0.00378788 </v>
   <v>       0.00378788 </v>
   <v>       0.00378788 </v>
   <v>       0.00378788 </v>
   <v>       0.00378788 </v>
   <v>       0.00378788 </v>
   <v>       0.00378788 </v>
   <v>       0.00378788 </v>
   <v>       0.00378788 </v>
   <v>       0.00378788 </v>
   <v>       0.00378788 </v>
   <v>       0.00378788 </v>
   <v>       0.00378788 </v>
   <v>       0.00378788 </v>
   <v>       0.00378788 </v>
   <v>       0.00378788 </v>
   <v>       0.00378788 </v>
   <v>       0.00378788 </v>
   <v>       0.00378788 </v>
   <v>       0.00378788 </v>
   <v>       0.00378788 </v>
   <v>       0.00378788 </v>
   <v>       0.00378788 </v>
   <v>       0.00378788 </v>
   <v>       0.00378788 </v>
   <v>       0.00378788 </v>
   <v>       0.00378788 </v>
   <v>       0.00378788 </v>
   <v>       0.00378788 </v>
   <v>       0.00378788 </v>
   <v>       0.00189394 </v>
   <v>       0.00378788 </v>
   <v>       0.00378788 </v>
   <v>       0.00378788 </v>
   <v>       0.00378788 </v>
   <v>       0.00378788 </v>
  </varray>
 </kpoints>
 <parameters>
  <separator name="general" >
   <i type="string" name="SYSTEM">unknown system</i>
   <i type="logical" name="LCOMPAT"> F  </i>
  </separator>
  <separator name="electronic" >
   <i type="string" name="PREC">accura</i>
   <i name="ENMAX">    900.00000000</i>
   <i name="ENAUG">   1514.19200000</i>
   <i name="EDIFF">      0.00000010</i>
   <i type="int" name="IALGO">    38</i>
   <i type="int" name="IWAVPR">    10</i>
   <i type="int" name="NBANDS">    40</i>
   <i type="int" name="NBANDSLOW">    -1</i>
   <i type="int" name="NBANDSHIGH">    -1</i>
   <i name="NELECT">     48.00000000</i>
   <i type="int" name="TURBO">     0</i>
   <i type="int" name="IRESTART">     0</i>
   <i type="int" name="NREBOOT">     0</i>
   <i type="int" name="NMIN">     0</i>
   <i name="EREF">      0.00000000</i>
   <separator name="electronic smearing" >
    <i type="int" name="ISMEAR">     0</i>
    <i name="SIGMA">      0.01000000</i>
    <i name="KSPACING">      0.50000000</i>
    <i type="logical" name="KGAMMA"> T  </i>
    <i type="logical" name="KBLOWUP"> T  </i>
   </separator>
   <separator name="electronic projectors" >
    <i type="logical" name="LREAL"> F  </i>
    <v name="ROPT">      0.00000000</v>
    <i type="int" name="LMAXPAW">  -100</i>
    <i type="int" name="LMAXMIX">     2</i>
    <i type="logical" name="NLSPLINE"> F  </i>
   </separator>
   <separator name="electronic startup" >
    <i type="int" name="ISTART">     0</i>
    <i type="int" name="ICHARG">     2</i>
    <i type="int" name="INIWAV">     1</i>
   </separator>
   <separator name="electronic spin" >
    <i type="int" name="ISPIN">     1</i>
    <i type="logical" name="LNONCOLLINEAR"> F  </i>
    <v name="MAGMOM">      1.00000000      1.00000000      1.00000000      1.00000000      1.00000000      1.00000000      1.00000000      1.00000000      1.00000000      1.00000000      1.00000000      1.00000000      1.00000000      1.00000000      1.00000000      1.00000000      1.00000000      1.00000000      1.00000000      1.00000000
      1.00000000      1.00000000      1.00000000      1.00000000</v>
    <i name="NUPDOWN">     -1.00000000</i>
    <i type="logical" name="LSORBIT"> F  </i>
    <v name="SAXIS">      0.00000000      0.00000000      1.00000000</v>
    <i type="logical" name="LSPIRAL"> F  </i>
    <v name="QSPIRAL">      0.00000000      0.00000000      0.00000000</v>
    <i type="logical" name="LZEROZ"> F  </i>
   </separator>
   <separator name="electronic exchange-correlation" >
    <i type="logical" name="LASPH"> F  </i>
   </separator>
   <separator name="electronic convergence" >
    <i type="int" name="NELM">    60</i>
    <i type="int" name="NELMDL">    -5</i>
    <i type="int" name="NELMIN">     2</i>
    <i name="ENINI">    900.00000000</i>
    <separator name="electronic convergence detail" >
     <i type="logical" name="LDIAG"> T  </i>
     <i type="logical" name="LSUBROT"> F  </i>
     <i name="WEIMIN">      0.00000000</i>
     <i name="EBREAK">      0.00000000</i>
     <i name="DEPER">      0.30000000</i>
     <i type="int" name="NRMM">     4</i>
     <i name="TIME">      0.40000000</i>
    </separator>
   </separator>
   <separator name="electronic mixer" >
    <i name="AMIX">      0.40000000</i>
    <i name="BMIX">      1.00000000</i>
    <i name="AMIN">      0.10000000</i>
    <i name="AMIX_MAG">      1.60000000</i>
    <i name="BMIX_MAG">      1.00000000</i>
    <separator name="electronic mixer details" >
     <i type="int" name="IMIX">     4</i>
     <i type="logical" name="MIXFIRST"> F  </i>
     <i type="int" name="MAXMIX">   -45</i>
     <i name="WC">    100.00000000</i>
     <i type="int" name="INIMIX">     1</i>
     <i type="int" name="MIXPRE">     1</i>
     <i type="int" name="MREMOVE">     5</i>
    </separator>
   </separator>
   <separator name="electronic dipolcorrection" >
    <i type="logical" name="LDIPOL"> F  </i>
    <i type="logical" name="LMONO"> F  </i>
    <i type="int" name="IDIPOL">     0</i>
    <i name="EPSILON">      1.00000000</i>
    <v name="DIPOL">   -100.00000000   -100.00000000   -100.00000000</v>
    <i name="EFIELD">      0.00000000</i>
    <i type="logical" name="LVACPOTAV"> F  </i>
   </separator>
  </separator>
  <separator name="grids" >
   <i type="int" name="NGX">    40</i>
   <i type="int" name="NGY">    36</i>
   <i type="int" name="NGZ">    96</i>
   <i type="int" name="NGXF">    80</i>
   <i type="int" name="NGYF">    72</i>
   <i type="int" name="NGZF">   192</i>
   <i type="logical" name="ADDGRID"> F  </i>
  </separator>
  <separator name="ionic" >
   <i type="int" name="NSW">     0</i>
   <i type="int" name="IBRION">    -1</i>
   <i type="int" name="MDALGO">     0</i>
   <i type="int" name="ISIF">     2</i>
   <i name="PSTRESS">      0.00000000</i>
   <i name="EDIFFG">      0.00000100</i>
   <i type="int" name="NFREE">     0</i>
   <i name="POTIM">      0.50000000</i>
   <i name="SMASS">     -3.00000000</i>
   <i name="SCALEE">      1.00000000</i>
  </separator>
  <separator name="ionic md" >
   <i name="TEBEG">      0.00010000</i>
   <i name="TEEND">      0.00010000</i>
   <i type="int" name="NBLOCK">     1</i>
   <i type="int" name="KBLOCK">     1</i>
   <i type="int" name="NPACO">   256</i>
   <i name="APACO">     10.00000000</i>
  </separator>
  <separator name="symmetry" >
   <i type="int" name="ISYM">     2</i>
   <i name="SYMPREC">      0.00001000</i>
  </separator>
  <separator name="dos" >
   <i type="int" name="LORBIT">     0</i>
   <v name="RWIGS">     -1.00000000</v>
   <i type="int" name="NEDOS">   301</i>
   <i name="EMIN">     10.00000000</i>
   <i name="EMAX">    -10.00000000</i>
   <i name="EFERMI">      0.00000000</i>
  </separator>
  <separator name="writing" >
   <i type="int" name="NWRITE">     2</i>
   <i type="logical" name="LWAVE"> F  </i>
   <i type="logical" name="LDOWNSAMPLE"> F  </i>
   <i type="logical" name="LCHARG"> F  </i>
   <i type="logical" name="LPARD"> F  </i>
   <i type="logical" name="LVTOT"> F  </i>
   <i type="logical" name="LVHAR"> F  </i>
   <i type="logical" name="LELF"> F  </i>
   <i type="logical" name="LOPTICS"> F  </i>
   <v name="STM">      0.00000000      0.00000000      0.00000000      0.00000000      0.00000000      0.00000000      0.00000000</v>
  </separator>
  <separator name="performance" >
   <i type="int" name="NPAR">     4</i>
   <i type="int" name="NSIM">     4</i>
   <i type="int" name="NBLK">    -1</i>
   <i type="logical" name="LPLANE"> T  </i>
   <i type="logical" name="LSCALAPACK"> T  </i>
   <i type="logical" name="LSCAAWARE"> F  </i>
   <i type="logical" name="LSCALU"> F  </i>
   <i type="logical" name="LASYNC"> F  </i>
   <i type="logical" name="LORBITALREAL"> F  </i>
  </separator>
  <separator name="miscellaneous" >
   <i type="int" name="IDIOT">     3</i>
   <i type="int" name="PHON_NSTRUCT">    -1</i>
   <i type="logical" name="LMUSIC"> F  </i>
   <v name="POMASS">      4.00000000</v>
   <v name="DARWINR">      0.00000000</v>
   <v name="DARWINV">      1.00000000</v>
   <i type="logical" name="LCORR"> T  </i>
  </separator>
  <i type="logical" name="GGA_COMPAT"> T  </i>
  <i type="logical" name="LBERRY"> F  </i>
  <i type="int" name="ICORELEVEL">     0</i>
  <i type="logical" name="LDAU"> F  </i>
  <i type="int" name="I_CONSTRAINED_M">     0</i>
  <separator name="electronic exchange-correlation" >
   <i type="string" name="GGA    ">PE</i>
   <i type="string" name="XC_C">1</i>
   <i type="int" name="VOSKOWN">     0</i>
   <i type="logical" name="LHFCALC"> F  </i>
   <i type="string" name="PRECFOCK"></i>
   <i type="logical" name="LSYMGRAD"> F  </i>
   <i type="logical" name="LHFONE"> F  </i>
   <i type="logical" name="LRHFCALC"> F  </i>
   <i type="logical" name="LTHOMAS"> F  </i>
   <i type="logical" name="LMODELHF"> F  </i>
   <i type="logical" name="LFOCKACE"> F  </i>
   <i name="ENCUT4O">     -1.00000000</i>
   <i type="int" name="EXXOEP">     0</i>
   <i type="int" name="FOURORBIT">     0</i>
   <i name="AEXX">      0.00000000</i>
   <i name="HFALPHA">      0.00000000</i>
   <i name="MCALPHA">      0.00000000</i>
   <i name="ALDAX">      1.00000000</i>
   <i name="AGGAX">      1.00000000</i>
   <i name="AMGGAX">      1.00000000</i>
   <i name="ALDAC">      1.00000000</i>
   <i name="AGGAC">      1.00000000</i>
   <i name="AMGGAC">      1.00000000</i>
   <i type="int" name="NKREDX">     1</i>
   <i type="int" name="NKREDY">     1</i>
   <i type="int" name="NKREDZ">     1</i>
   <i type="logical" name="SHIFTRED"> F  </i>
   <i type="logical" name="ODDONLY"> F  </i>
   <i type="logical" name="EVENONLY"> F  </i>
   <i type="int" name="LMAXFOCK">     0</i>
   <i type="int" name="NMAXFOCKAE">     0</i>
   <i type="logical" name="LFOCKAEDFT"> F  </i>
   <i name="HFSCREEN">      0.00000000</i>
   <i name="HFSCREENC">      0.00000000</i>
   <i type="int" name="NBANDSGWLOW">     0</i>
  </separator>
  <separator name="vdW DFT" >
   <i type="logical" name="LUSE_VDW"> F  </i>
   <i type="int" name="IVDW_NL">    -1</i>
   <i type="logical" name="LSPIN_VDW"> F  </i>
   <i name="ZAB_VDW">     -0.84910000</i>
   <i name="GAMMA_VDW">      1.39626340</i>
   <i name="ALPHA_VDW">      0.00000000</i>
   <i name="PARAM1">      0.12340000</i>
   <i name="PARAM2">      1.00000000</i>
   <i name="BPARAM">      6.30000000</i>
   <i name="CPARAM">      0.00930000</i>
  </separator>
  <separator name="model GW" >
   <i type="int" name="MODEL_GW">     0</i>
   <i name="MODEL_EPS0">      3.16308025</i>
   <i name="MODEL_ALPHA">      1.00000000</i>
  </separator>
  <separator name="linear response parameters" >
   <i type="logical" name="LEPSILON"> F  </i>
   <i type="logical" name="LRPA"> F  </i>
   <i type="logical" name="LNABLA"> F  </i>
   <i type="logical" name="LVEL"> F  </i>
   <i name="CSHIFT">      0.10000000</i>
   <i name="OMEGAMAX">     -1.00000000</i>
   <i name="DEG_THRESHOLD">      0.00200000</i>
   <i name="RTIME">     -0.10000000</i>
   <i name="WPLASMAI">      0.00000000</i>
   <v name="DFIELD">      0.00000000      0.00000000      0.00000000</v>
   <v name="WPLASMA">      0.00000000      0.00000000      0.00000000      0.00000000      0.00000000      0.00000000      0.00000000      0.00000000      0.00000000</v>
  </separator>
  <separator name="orbital magnetization" >
   <i type="logical" name="NUCIND"> F  </i>
   <v name="MAGPOS">      0.00000000      0.00000000      0.00000000</v>
   <i type="logical" name="LNICSALL"> T  </i>
   <i type="logical" name="ORBITALMAG"> F  </i>
   <i type="logical" name="LMAGBLOCH"> F  </i>
   <i type="logical" name="LCHIMAG"> F  </i>
   <i type="logical" name="LGAUGE"> T  </i>
   <i type="int" name="MAGATOM">     0</i>
   <v name="MAGDIPOL">      0.00000000      0.00000000      0.00000000</v>
   <v name="AVECCONST">      0.00000000      0.00000000      0.00000000</v>
  </separator>
  <separator name="response functions" >
   <i type="logical" name="LALL_IN_ONE"> F  </i>
   <i type="int" name="IALL_IN_ONE">    -1</i>
   <i type="int" name="NBANDS_WAVE">    -1</i>
   <i type="logical" name="LFINITE_TEMPERATURE"> F  </i>
   <i type="logical" name="LADDER"> F  </i>
   <i type="logical" name="LRPAFORCE"> F  </i>
   <i type="logical" name="LFXC"> F  </i>
   <i type="logical" name="LHARTREE"> T  </i>
   <i type="int" name="IBSE">     0</i>
   <v type="int" name="KPOINT">    -1     0     0     0</v>
   <i type="logical" name="LTCTC"> F  </i>
   <i type="logical" name="LTCTE"> F  </i>
   <i type="logical" name="LTETE"> F  </i>
   <i type="logical" name="LTRIPLET"> F  </i>
   <i type="logical" name="LFXCEPS"> F  </i>
   <i type="logical" name="LFXHEG"> F  </i>
   <i type="int" name="NATURALO">     2</i>
   <i type="logical" name="LHOLEGF"> F  </i>
   <i type="logical" name="L2ORDER"> F  </i>
   <i type="logical" name="LDMP1"> F  </i>
   <i type="logical" name="LMP2LT"> F  </i>
   <i type="logical" name="LSMP2LT"> F  </i>
   <i type="logical" name="LGWLF"> F  </i>
   <i name="ENCUTGW">     -1.60000002</i>
   <i name="ENCUTGWSOFT">     -1.60000002</i>
   <i name="ENCUTLF">     -1.00000000</i>
   <i type="logical" name="ESF_SPLINES"> F  </i>
   <i name="ESF_CONV">      0.01000000</i>
   <i type="int" name="ESF_NINTER">    15</i>
   <i type="int" name="LMAXMP2">    -1</i>
   <i name="SCISSOR">      0.00000000</i>
   <i type="int" name="NOMEGA">     0</i>
   <i type="int" name="NOMEGAR">     0</i>
   <i type="int" name="NBANDSGW">    -1</i>
   <i type="int" name="NBANDSO">    -1</i>
   <i type="int" name="NBANDSV">    -1</i>
   <i type="int" name="NELMGW">     1</i>
   <i type="int" name="NELMHF">     1</i>
   <i type="int" name="DIM">     3</i>
   <i type="int" name="IESPILON">     4</i>
   <i type="int" name="ANTIRES">     0</i>
   <i name="OMEGAMAX">    -30.00000000</i>
   <i name="OMEGAMIN">    -30.00000000</i>
   <i name="OMEGATL">   -200.00000000</i>
   <i type="int" name="OMEGAGRID">     0</i>
   <i name="CSHIFT">     -0.10000000</i>
   <i type="logical" name="LSELFENERGY"> F  </i>
   <i type="logical" name="LSPECTRAL"> F  </i>
   <i type="logical" name="LSPECTRALGW"> F  </i>
   <i type="logical" name="LSINGLES"> F  </i>
   <i type="logical" name="LFERMIGW"> F  </i>
   <i type="logical" name="ODDONLYGW"> F  </i>
   <i type="logical" name="EVENONLYGW"> F  </i>
   <i type="int" name="NKREDLFX">     1</i>
   <i type="int" name="NKREDLFY">     1</i>
   <i type="int" name="NKREDLFZ">     1</i>
   <i type="int" name="MAXMEM">  2800</i>
   <i type="int" name="TELESCOPE">     0</i>
   <i type="int" name="NTAUPAR">    -1</i>
   <i type="int" name="NOMEGAPAR">    -1</i>
   <i name="DAMP_NEWTON">      0.80000001</i>
   <i name="LAMBDA">      1.00000000</i>
  </separator>
  <separator name="External order field" >
   <i name="OFIELD_KAPPA">      0.00000000</i>
   <v name="OFIELD_K">      0.00000000      0.00000000      0.00000000</v>
   <i name="OFIELD_Q6_NEAR">      0.00000000</i>
   <i name="OFIELD_Q6_FAR">      0.00000000</i>
   <i name="OFIELD_A">      0.00000000</i>
  </separator>
  <separator name="optional k-points parameters" >
   <i type="int" name="KPOINTS_OPT_MODE">     1</i>
   <i type="logical" name="LKPOINTS_OPT"> F  </i>
  </separator>
 </parameters>
 <atominfo>
  <atoms>      24 </atoms>
  <types>       1 </types>
  <array name="atoms" >
   <dimension dim="1">ion</dimension>
   <field type="string">element</field>
   <field type="int">atomtype</field>
   <set>
    <rc><c>He</c><c>   1</c></rc>
    <rc><c>He</c><c>   1</c></rc>
    <rc><c>He</c><c>   1</c></rc>
    <rc><c>He</c><c>   1</c></rc>
    <rc><c>He</c><c>   1</c></rc>
    <rc><c>He</c><c>   1</c></rc>
    <rc><c>He</c><c>   1</c></rc>
    <rc><c>He</c><c>   1</c></rc>
    <rc><c>He</c><c>   1</c></rc>
    <rc><c>He</c><c>   1</c></rc>
    <rc><c>He</c><c>   1</c></rc>
    <rc><c>He</c><c>   1</c></rc>
    <rc><c>He</c><c>   1</c></rc>
    <rc><c>He</c><c>   1</c></rc>
    <rc><c>He</c><c>   1</c></rc>
    <rc><c>He</c><c>   1</c></rc>
    <rc><c>He</c><c>   1</c></rc>
    <rc><c>He</c><c>   1</c></rc>
    <rc><c>He</c><c>   1</c></rc>
    <rc><c>He</c><c>   1</c></rc>
    <rc><c>He</c><c>   1</c></rc>
    <rc><c>He</c><c>   1</c></rc>
    <rc><c>He</c><c>   1</c></rc>
    <rc><c>He</c><c>   1</c></rc>
   </set>
  </array>
  <array name="atomtypes" >
   <dimension dim="1">type</dimension>
   <field type="int">atomspertype</field>
   <field type="string">element</field>
   <field>mass</field>
   <field>valence</field>
   <field type="string">pseudopotential</field>
   <set>
    <rc><c>  24</c><c>He</c><c>      4.00000000</c><c>      2.00000000</c><c>  PAW_PBE He_GW 23Feb2015               </c></rc>
   </set>
  </array>
 </atominfo>
 <structure name="initialpos" >
  <crystal>
   <varray name="basis" >
    <v>       1.95429405       3.38493658       0.00000000 </v>
    <v>      -2.93144107       1.69246829       0.00000000 </v>
    <v>       0.00000000       0.00000000       9.56312345 </v>
   </varray>
   <i name="volume">    126.52321019 </i>
   <varray name="rec_basis" >
    <v>       0.12792343       0.22156988      -0.00000000 </v>
    <v>      -0.25584686       0.14771325       0.00000000 </v>
    <v>       0.00000000      -0.00000000       0.10456835 </v>
   </varray>
  </crystal>
  <varray name="positions" >
   <v>       0.24908016       0.16574683       0.08241349 </v>
   <v>       0.50000000       0.66666667       0.08333333 </v>
   <v>       0.75000000       0.16666667       0.08333333 </v>
   <v>       0.00000000       0.66666667       0.08333333 </v>
   <v>       0.25000000       0.16666667       0.41666667 </v>
   <v>       0.50000000       0.66666667       0.41666667 </v>
   <v>       0.75000000       0.16666667       0.41666667 </v>
   <v>       0.00000000       0.66666667       0.41666667 </v>
   <v>       0.25000000       0.16666667       0.75000000 </v>
   <v>       0.50000000       0.66666667       0.75000000 </v>
   <v>       0.75000000       0.16666667       0.75000000 </v>
   <v>       0.00000000       0.66666667       0.75000000 </v>
   <v>       0.25000000       0.83333333       0.25000000 </v>
   <v>       0.50000000       0.33333333       0.25000000 </v>
   <v>       0.75000000       0.83333333       0.25000000 </v>
   <v>       0.00000000       0.33333333       0.25000000 </v>
   <v>       0.25000000       0.83333333       0.58333333 </v>
   <v>       0.50000000       0.33333333       0.58333333 </v>
   <v>       0.75000000       0.83333333       0.58333333 </v>
   <v>       0.00000000       0.33333333       0.58333333 </v>
   <v>       0.25000000       0.83333333       0.91666667 </v>
   <v>       0.50000000       0.33333333       0.91666667 </v>
   <v>       0.75000000       0.83333333       0.91666667 </v>
   <v>       0.00000000       0.33333333       0.91666667 </v>
  </varray>
 </structure>
 <calculation>
  <scstep>
   <time name="dav">    2.71    2.71</time>
   <time name="total">    2.76    2.76</time>
   <energy>
    <i name="alphaZ">     46.16035745 </i>
    <i name="ewald">  -1147.00559603 </i>
    <i name="hartreedc">   -325.55678055 </i>
    <i name="XCdc">    188.77275195 </i>
    <i name="pawpsdc">   1096.62050802 </i>
    <i name="pawaedc">  -1132.77759231 </i>
    <i name="eentropy">     -0.00002050 </i>
    <i name="bandstr">   -326.68316632 </i>
    <i name="atom">   1889.38125292 </i>
    <i name="e_fr_energy">    288.91171464 </i>
    <i name="e_wo_entrp">    288.91173514 </i>
    <i name="e_0_energy">    288.91172489 </i>
   </energy>
  </scstep>
  <scstep>
   <time name="dav">    4.41    4.42</time>
   <time name="total">    4.42    4.42</time>
   <energy>
    <i name="e_fr_energy">     25.06872295 </i>
    <i name="e_wo_entrp">     25.06872295 </i>
    <i name="e_0_energy">     25.06872295 </i>
   </energy>
  </scstep>
  <scstep>
   <time name="dav">    6.17    6.17</time>
   <time name="total">    6.17    6.17</time>
   <energy>
    <i name="e_fr_energy">      8.36884038 </i>
    <i name="e_wo_entrp">      8.36884038 </i>
    <i name="e_0_energy">      8.36884038 </i>
   </energy>
  </scstep>
  <scstep>
   <time name="dav">    6.09    6.09</time>
   <time name="total">    6.09    6.09</time>
   <energy>
    <i name="e_fr_energy">      7.81320992 </i>
    <i name="e_wo_entrp">      7.81320992 </i>
    <i name="e_0_energy">      7.81320992 </i>
   </energy>
  </scstep>
  <scstep>
   <time name="dav">    6.00    6.00</time>
   <time name="total">    6.16    6.16</time>
   <energy>
    <i name="e_fr_energy">      7.79475639 </i>
    <i name="e_wo_entrp">      7.79475639 </i>
    <i name="e_0_energy">      7.79475639 </i>
   </energy>
  </scstep>
  <scstep>
   <time name="dav">    6.11    6.11</time>
   <time name="total">    6.31    6.31</time>
   <energy>
    <i name="e_fr_energy">      7.85452796 </i>
    <i name="e_wo_entrp">      7.85452796 </i>
    <i name="e_0_energy">      7.85452796 </i>
   </energy>
  </scstep>
  <scstep>
   <time name="dav">    5.89    5.89</time>
   <time name="total">    6.03    6.04</time>
   <energy>
    <i name="e_fr_energy">      7.86904440 </i>
    <i name="e_wo_entrp">      7.86904440 </i>
    <i name="e_0_energy">      7.86904440 </i>
   </energy>
  </scstep>
  <scstep>
   <time name="dav">    3.98    3.99</time>
   <time name="total">    4.09    4.09</time>
   <energy>
    <i name="e_fr_energy">      7.86809656 </i>
    <i name="e_wo_entrp">      7.86809656 </i>
    <i name="e_0_energy">      7.86809656 </i>
   </energy>
  </scstep>
  <scstep>
   <time name="dav">    2.65    2.65</time>
   <time name="total">    2.76    2.76</time>
   <energy>
    <i name="e_fr_energy">      7.86768806 </i>
    <i name="e_wo_entrp">      7.86768806 </i>
    <i name="e_0_energy">      7.86768806 </i>
   </energy>
  </scstep>
  <scstep>
   <time name="dav">    2.98    2.98</time>
   <time name="total">    3.08    3.09</time>
   <energy>
    <i name="e_fr_energy">      7.86768766 </i>
    <i name="e_wo_entrp">      7.86768766 </i>
    <i name="e_0_energy">      7.86768766 </i>
   </energy>
  </scstep>
  <scstep>
   <time name="dav">    2.66    2.66</time>
   <time name="total">    2.76    2.76</time>
   <energy>
    <i name="e_fr_energy">      7.86768731 </i>
    <i name="e_wo_entrp">      7.86768731 </i>
    <i name="e_0_energy">      7.86768731 </i>
   </energy>
  </scstep>
  <scstep>
   <time name="dav">    2.29    2.29</time>
   <time name="total">    2.40    2.40</time>
   <energy>
    <i name="e_fr_energy">      7.86768756 </i>
    <i name="e_wo_entrp">      7.86768756 </i>
    <i name="e_0_energy">      7.86768756 </i>
   </energy>
  </scstep>
  <scstep>
   <time name="dav">    2.07    2.07</time>
   <time name="total">    2.10    2.10</time>
   <energy>
    <i name="alphaZ">     46.16035745 </i>
    <i name="ewald">  -1147.00559603 </i>
    <i name="hartreedc">   -338.64224986 </i>
    <i name="XCdc">    190.97733724 </i>
    <i name="pawpsdc">   1147.02929935 </i>
    <i name="pawaedc">  -1184.55675565 </i>
    <i name="eentropy">     -0.00000000 </i>
    <i name="bandstr">   -595.47595788 </i>
    <i name="atom">   1889.38125292 </i>
    <i name="e_fr_energy">      7.86768753 </i>
    <i name="e_wo_entrp">      7.86768753 </i>
    <i name="e_0_energy">      7.86768753 </i>
   </energy>
  </scstep>
  <structure>
   <crystal>
    <varray name="basis" >
     <v>       1.95429405       3.38493658       0.00000000 </v>
     <v>      -2.93144107       1.69246829       0.00000000 </v>
     <v>       0.00000000       0.00000000       9.56312345 </v>
    </varray>
    <i name="volume">    126.52321019 </i>
    <varray name="rec_basis" >
     <v>       0.12792343       0.22156988      -0.00000000 </v>
     <v>      -0.25584686       0.14771325       0.00000000 </v>
     <v>       0.00000000      -0.00000000       0.10456835 </v>
    </varray>
   </crystal>
   <varray name="positions" >
    <v>       0.24908016       0.16574683       0.08241349 </v>
    <v>       0.50000000       0.66666667       0.08333333 </v>
    <v>       0.75000000       0.16666667       0.08333333 </v>
    <v>       0.00000000       0.66666667       0.08333333 </v>
    <v>       0.25000000       0.16666667       0.41666667 </v>
    <v>       0.50000000       0.66666667       0.41666667 </v>
    <v>       0.75000000       0.16666667       0.41666667 </v>
    <v>       0.00000000       0.66666667       0.41666667 </v>
    <v>       0.25000000       0.16666667       0.75000000 </v>
    <v>       0.50000000       0.66666667       0.75000000 </v>
    <v>       0.75000000       0.16666667       0.75000000 </v>
    <v>       0.00000000       0.66666667       0.75000000 </v>
    <v>       0.25000000       0.83333333       0.25000000 </v>
    <v>       0.50000000       0.33333333       0.25000000 </v>
    <v>       0.75000000       0.83333333       0.25000000 </v>
    <v>       0.00000000       0.33333333       0.25000000 </v>
    <v>       0.25000000       0.83333333       0.58333333 </v>
    <v>       0.50000000       0.33333333       0.58333333 </v>
    <v>       0.75000000       0.83333333       0.58333333 </v>
    <v>       0.00000000       0.33333333       0.58333333 </v>
    <v>       0.25000000       0.83333333       0.91666667 </v>
    <v>       0.50000000       0.33333333       0.91666667 </v>
    <v>       0.75000000       0.83333333       0.91666667 </v>
    <v>       0.00000000       0.33333333       0.91666667 </v>
   </varray>
  </structure>
  <varray name="forces" >
   <v>      -0.00311467       0.01635900       0.03071312 </v>
   <v>       0.00273925      -0.00359324       0.00120967 </v>
   <v>      -0.00381805      -0.00589677       0.00122905 </v>
   <v>       0.00351569      -0.00349572       0.00123601 </v>
   <v>       0.00000096       0.00000560      -0.00019240 </v>
   <v>       0.00000644      -0.00000371      -0.00000432 </v>
   <v>      -0.00000634      -0.00000028      -0.00001180 </v>
   <v>       0.00000440      -0.00000295      -0.00000402 </v>
   <v>      -0.00000280       0.00000817      -0.00019880 </v>
   <v>       0.00000258       0.00000053      -0.00000665 </v>
   <v>       0.00000738      -0.00000858      -0.00000711 </v>
   <v>      -0.00000143      -0.00000157      -0.00000759 </v>
   <v>      -0.00269079       0.00188141      -0.00409605 </v>
   <v>      -0.00008326      -0.00552198      -0.00772223 </v>
   <v>       0.00005301      -0.00007422      -0.00004957 </v>
   <v>       0.00304040       0.00209577      -0.00485806 </v>
   <v>       0.00000067      -0.00000049       0.00000164 </v>
   <v>       0.00000059      -0.00000029       0.00000490 </v>
   <v>       0.00000029      -0.00000021       0.00000532 </v>
   <v>       0.00000065      -0.00000051       0.00000488 </v>
   <v>       0.00475065      -0.00238767      -0.00727709 </v>
   <v>      -0.00005817       0.00280716      -0.00342915 </v>
   <v>      -0.00004176      -0.00001992      -0.00001049 </v>
   <v>      -0.00430569      -0.00214952      -0.00652926 </v>
  </varray>
  <varray name="stress" >
   <v>     277.01822810      -0.03369062      -0.00019608 </v>
   <v>      -0.03369060     276.90665710       0.00097245 </v>
   <v>      -0.00019601       0.00097245     276.55056142 </v>
  </varray>
  <energy>
   <i name="e_fr_energy">      7.27439899 </i>
   <i name="e_wo_entrp">      7.27439899 </i>
   <i name="e_0_energy">      7.27439899 </i>
  </energy>
  <time name="totalsc">   59.23   59.28</time>
  <eigenvalues>
   <array>
    <dimension dim="1">band</dimension>
    <dimension dim="2">kpoint</dimension>
    <dimension dim="3">spin</dimension>
    <field>eigene</field>
    <field>occ</field>
    <set>
     <set comment="spin 1">
      <set comment="kpoint 1">
       <r>  -17.9202    1.0000 </r>
       <r>  -16.8063    1.0000 </r>
       <r>  -16.8002    1.0000 </r>
       <r>  -14.0041    1.0000 </r>
       <r>  -13.9969    1.0000 </r>
       <r>  -12.5160    1.0000 </r>
       <r>  -12.5129    1.0000 </r>
       <r>  -12.1776    1.0000 </r>
       <r>  -12.0801    1.0000 </r>
       <r>  -11.9410    1.0000 </r>
       <r>  -11.9371    1.0000 </r>
       <r>  -11.9366    1.0000 </r>
       <r>  -11.9332    1.0000 </r>
       <r>  -11.7160    1.0000 </r>
       <r>  -11.7131    1.0000 </r>
       <r>  -10.8590    1.0000 </r>
       <r>  -10.8569    1.0000 </r>
       <r>  -10.7700    1.0000 </r>
       <r>  -10.7676    1.0000 </r>
       <r>  -10.7673    1.0000 </r>
       <r>  -10.7642    1.0000 </r>
       <r>  -10.4909    1.0000 </r>
       <r>  -10.1916    1.0000 </r>
       <r>  -10.1909    1.0000 </r>
       <r>    8.1285    0.0000 </r>
       <r>    9.2515    0.0000 </r>
       <r>    9.2534    0.0000 </r>
       <r>    9.4226    0.0000 </r>
       <r>   11.5302    0.0000 </r>
       <r>   11.5352    0.0000 </r>
       <r>   11.5871    0.0000 </r>
       <r>   11.5937    0.0000 </r>
       <r>   11.6620    0.0000 </r>
       <r>   11.6765    0.0000 </r>
       <r>   11.8394    0.0000 </r>
       <r>   11.8462    0.0000 </r>
       <r>   11.8476    0.0000 </r>
       <r>   11.8540    0.0000 </r>
       <r>   12.6834    0.0000 </r>
       <r>   12.6885    0.0000 </r>
      </set>
      <set comment="kpoint 2">
       <r>  -17.8633    1.0000 </r>
       <r>  -16.7524    1.0000 </r>
       <r>  -16.7462    1.0000 </r>
       <r>  -13.9599    1.0000 </r>
       <r>  -13.9528    1.0000 </r>
       <r>  -13.2038    1.0000 </r>
       <r>  -12.5100    1.0000 </r>
       <r>  -12.5060    1.0000 </r>
       <r>  -12.1430    1.0000 </r>
       <r>  -12.0464    1.0000 </r>
       <r>  -11.8924    1.0000 </r>
       <r>  -11.6872    1.0000 </r>
       <r>  -11.6843    1.0000 </r>
       <r>  -11.4496    1.0000 </r>
       <r>  -11.4470    1.0000 </r>
       <r>  -11.0206    1.0000 </r>
       <r>  -11.0170    1.0000 </r>
       <r>  -10.8429    1.0000 </r>
       <r>  -10.8409    1.0000 </r>
       <r>  -10.6161    1.0000 </r>
       <r>  -10.6143    1.0000 </r>
       <r>  -10.4816    1.0000 </r>
       <r>  -10.2445    1.0000 </r>
       <r>  -10.2293    1.0000 </r>
       <r>    8.2091    0.0000 </r>
       <r>    9.3302    0.0000 </r>
       <r>    9.3322    0.0000 </r>
       <r>    9.4823    0.0000 </r>
       <r>   11.2412    0.0000 </r>
       <r>   11.6054    0.0000 </r>
       <r>   11.6102    0.0000 </r>
       <r>   11.7001    0.0000 </r>
       <r>   11.7147    0.0000 </r>
       <r>   11.8104    0.0000 </r>
       <r>   11.8115    0.0000 </r>
       <r>   12.1532    0.0000 </r>
       <r>   12.1572    0.0000 </r>
       <r>   12.1680    0.0000 </r>
       <r>   12.5522    0.0000 </r>
       <r>   12.5575    0.0000 </r>
      </set>
      <set comment="kpoint 3">
       <r>  -17.6937    1.0000 </r>
       <r>  -16.5915    1.0000 </r>
       <r>  -16.5854    1.0000 </r>
       <r>  -13.9263    1.0000 </r>
       <r>  -13.8290    1.0000 </r>
       <r>  -13.8220    1.0000 </r>
       <r>  -13.1322    1.0000 </r>
       <r>  -13.1277    1.0000 </r>
       <r>  -12.0411    1.0000 </r>
       <r>  -11.9471    1.0000 </r>
       <r>  -11.6027    1.0000 </r>
       <r>  -11.5999    1.0000 </r>
       <r>  -11.3685    1.0000 </r>
       <r>  -11.3549    1.0000 </r>
       <r>  -11.3506    1.0000 </r>
       <r>  -11.0671    1.0000 </r>
       <r>  -11.0652    1.0000 </r>
       <r>  -10.7977    1.0000 </r>
       <r>  -10.7959    1.0000 </r>
       <r>  -10.5674    1.0000 </r>
       <r>  -10.5664    1.0000 </r>
       <r>  -10.4570    1.0000 </r>
       <r>  -10.3832    1.0000 </r>
       <r>  -10.3533    1.0000 </r>
       <r>    8.4510    0.0000 </r>
       <r>    9.5660    0.0000 </r>
       <r>    9.5680    0.0000 </r>
       <r>    9.6580    0.0000 </r>
       <r>   11.1125    0.0000 </r>
       <r>   11.8097    0.0000 </r>
       <r>   11.8248    0.0000 </r>
       <r>   11.8309    0.0000 </r>
       <r>   11.8340    0.0000 </r>
       <r>   12.0699    0.0000 </r>
       <r>   12.0713    0.0000 </r>
       <r>   12.5514    0.0000 </r>
       <r>   12.5588    0.0000 </r>
       <r>   12.6845    0.0000 </r>
       <r>   12.6899    0.0000 </r>
       <r>   12.9448    0.0000 </r>
      </set>
      <set comment="kpoint 4">
       <r>  -17.4142    1.0000 </r>
       <r>  -16.3270    1.0000 </r>
       <r>  -16.3210    1.0000 </r>
       <r>  -14.6484    1.0000 </r>
       <r>  -13.7722    1.0000 </r>
       <r>  -13.7672    1.0000 </r>
       <r>  -13.6162    1.0000 </r>
       <r>  -13.6093    1.0000 </r>
       <r>  -11.8773    1.0000 </r>
       <r>  -11.7876    1.0000 </r>
       <r>  -11.7467    1.0000 </r>
       <r>  -11.7416    1.0000 </r>
       <r>  -11.4690    1.0000 </r>
       <r>  -11.4664    1.0000 </r>
       <r>  -10.9619    1.0000 </r>
       <r>  -10.8020    1.0000 </r>
       <r>  -10.8008    1.0000 </r>
       <r>  -10.7324    1.0000 </r>
       <r>  -10.7308    1.0000 </r>
       <r>  -10.6139    1.0000 </r>
       <r>  -10.6133    1.0000 </r>
       <r>  -10.5917    1.0000 </r>
       <r>  -10.5480    1.0000 </r>
       <r>  -10.4274    1.0000 </r>
       <r>    8.8541    0.0000 </r>
       <r>    9.9370    0.0000 </r>
       <r>    9.9576    0.0000 </r>
       <r>    9.9598    0.0000 </r>
       <r>   11.1324    0.0000 </r>
       <r>   11.9799    0.0000 </r>
       <r>   11.9946    0.0000 </r>
       <r>   12.1969    0.0000 </r>
       <r>   12.2013    0.0000 </r>
       <r>   12.5613    0.0000 </r>
       <r>   12.5645    0.0000 </r>
       <r>   12.5992    0.0000 </r>
       <r>   12.6086    0.0000 </r>
       <r>   13.2765    0.0000 </r>
       <r>   13.3761    0.0000 </r>
       <r>   13.3829    0.0000 </r>
      </set>
      <set comment="kpoint 5">
       <r>  -17.0300    1.0000 </r>
       <r>  -15.9650    1.0000 </r>
       <r>  -15.9591    1.0000 </r>
       <r>  -15.3413    1.0000 </r>
       <r>  -14.3990    1.0000 </r>
       <r>  -14.3937    1.0000 </r>
       <r>  -13.3295    1.0000 </r>
       <r>  -13.3228    1.0000 </r>
       <r>  -12.1666    1.0000 </r>
       <r>  -12.1610    1.0000 </r>
       <r>  -11.6609    1.0000 </r>
       <r>  -11.5769    1.0000 </r>
       <r>  -11.2974    1.0000 </r>
       <r>  -11.2950    1.0000 </r>
       <r>  -10.8478    1.0000 </r>
       <r>  -10.7917    1.0000 </r>
       <r>  -10.7362    1.0000 </r>
       <r>  -10.7352    1.0000 </r>
       <r>  -10.6788    1.0000 </r>
       <r>  -10.6620    1.0000 </r>
       <r>  -10.6606    1.0000 </r>
       <r>  -10.6501    1.0000 </r>
       <r>  -10.6495    1.0000 </r>
       <r>  -10.4101    1.0000 </r>
       <r>    9.4181    0.0000 </r>
       <r>   10.2940    0.0000 </r>
       <r>   10.5016    0.0000 </r>
       <r>   10.5037    0.0000 </r>
       <r>   11.1453    0.0000 </r>
       <r>   12.0726    0.0000 </r>
       <r>   12.1829    0.0000 </r>
       <r>   12.1973    0.0000 </r>
       <r>   12.6098    0.0000 </r>
       <r>   12.6214    0.0000 </r>
       <r>   12.6971    0.0000 </r>
       <r>   12.7013    0.0000 </r>
       <r>   12.7049    0.0000 </r>
       <r>   12.7088    0.0000 </r>
       <r>   14.1628    0.0000 </r>
       <r>   14.1780    0.0000 </r>
      </set>
      <set comment="kpoint 6">
       <r>  -16.5486    1.0000 </r>
       <r>  -15.9809    1.0000 </r>
       <r>  -15.5141    1.0000 </r>
       <r>  -15.5084    1.0000 </r>
       <r>  -14.9866    1.0000 </r>
       <r>  -14.9811    1.0000 </r>
       <r>  -12.9808    1.0000 </r>
       <r>  -12.9744    1.0000 </r>
       <r>  -12.5863    1.0000 </r>
       <r>  -12.5802    1.0000 </r>
       <r>  -11.4049    1.0000 </r>
       <r>  -11.3285    1.0000 </r>
       <r>  -11.1269    1.0000 </r>
       <r>  -11.1036    1.0000 </r>
       <r>  -11.1016    1.0000 </r>
       <r>  -11.0598    1.0000 </r>
       <r>  -10.9083    1.0000 </r>
       <r>  -10.9068    1.0000 </r>
       <r>  -10.6073    1.0000 </r>
       <r>  -10.6062    1.0000 </r>
       <r>  -10.5939    1.0000 </r>
       <r>  -10.5932    1.0000 </r>
       <r>  -10.5082    1.0000 </r>
       <r>  -10.4279    1.0000 </r>
       <r>   10.1429    0.0000 </r>
       <r>   10.6767    0.0000 </r>
       <r>   10.9950    0.0000 </r>
       <r>   11.0281    0.0000 </r>
       <r>   11.1894    0.0000 </r>
       <r>   11.1916    0.0000 </r>
       <r>   11.9892    0.0000 </r>
       <r>   11.9918    0.0000 </r>
       <r>   12.3828    0.0000 </r>
       <r>   12.3967    0.0000 </r>
       <r>   12.5378    0.0000 </r>
       <r>   12.5508    0.0000 </r>
       <r>   13.3023    0.0000 </r>
       <r>   13.3064    0.0000 </r>
       <r>   13.9300    0.0000 </r>
       <r>   13.9337    0.0000 </r>
      </set>
      <set comment="kpoint 7">
       <r>  -17.8565    1.0000 </r>
       <r>  -16.7459    1.0000 </r>
       <r>  -16.7398    1.0000 </r>
       <r>  -13.9546    1.0000 </r>
       <r>  -13.9475    1.0000 </r>
       <r>  -12.4965    1.0000 </r>
       <r>  -12.4935    1.0000 </r>
       <r>  -12.3899    1.0000 </r>
       <r>  -12.0424    1.0000 </r>
       <r>  -11.9278    1.0000 </r>
       <r>  -11.9238    1.0000 </r>
       <r>  -11.9233    1.0000 </r>
       <r>  -11.9201    1.0000 </r>
       <r>  -11.8760    1.0000 </r>
       <r>  -11.8728    1.0000 </r>
       <r>  -10.8855    1.0000 </r>
       <r>  -10.8832    1.0000 </r>
       <r>  -10.7744    1.0000 </r>
       <r>  -10.7720    1.0000 </r>
       <r>  -10.7718    1.0000 </r>
       <r>  -10.7687    1.0000 </r>
       <r>  -10.4356    1.0000 </r>
       <r>  -10.2085    1.0000 </r>
       <r>  -10.2076    1.0000 </r>
       <r>    8.2188    0.0000 </r>
       <r>    9.4303    0.0000 </r>
       <r>    9.4327    0.0000 </r>
       <r>    9.6308    0.0000 </r>
       <r>   11.3637    0.0000 </r>
       <r>   11.3701    0.0000 </r>
       <r>   11.4921    0.0000 </r>
       <r>   11.4987    0.0000 </r>
       <r>   11.5004    0.0000 </r>
       <r>   11.5056    0.0000 </r>
       <r>   11.6495    0.0000 </r>
       <r>   11.6545    0.0000 </r>
       <r>   11.7055    0.0000 </r>
       <r>   11.7199    0.0000 </r>
       <r>   12.7193    0.0000 </r>
       <r>   12.7266    0.0000 </r>
      </set>
      <set comment="kpoint 8">
       <r>  -17.7998    1.0000 </r>
       <r>  -16.6921    1.0000 </r>
       <r>  -16.6860    1.0000 </r>
       <r>  -13.9108    1.0000 </r>
       <r>  -13.9037    1.0000 </r>
       <r>  -13.1716    1.0000 </r>
       <r>  -12.4844    1.0000 </r>
       <r>  -12.4805    1.0000 </r>
       <r>  -12.3547    1.0000 </r>
       <r>  -12.0090    1.0000 </r>
       <r>  -11.8930    1.0000 </r>
       <r>  -11.8463    1.0000 </r>
       <r>  -11.8432    1.0000 </r>
       <r>  -11.4534    1.0000 </r>
       <r>  -11.4508    1.0000 </r>
       <r>  -11.0145    1.0000 </r>
       <r>  -11.0110    1.0000 </r>
       <r>  -10.8685    1.0000 </r>
       <r>  -10.8663    1.0000 </r>
       <r>  -10.6294    1.0000 </r>
       <r>  -10.6275    1.0000 </r>
       <r>  -10.4258    1.0000 </r>
       <r>  -10.2645    1.0000 </r>
       <r>  -10.2378    1.0000 </r>
       <r>    8.2994    0.0000 </r>
       <r>    9.5069    0.0000 </r>
       <r>    9.5093    0.0000 </r>
       <r>    9.6890    0.0000 </r>
       <r>   11.0373    0.0000 </r>
       <r>   11.4491    0.0000 </r>
       <r>   11.4520    0.0000 </r>
       <r>   11.7172    0.0000 </r>
       <r>   11.7231    0.0000 </r>
       <r>   11.7427    0.0000 </r>
       <r>   11.7560    0.0000 </r>
       <r>   11.7786    0.0000 </r>
       <r>   11.7839    0.0000 </r>
       <r>   11.9352    0.0000 </r>
       <r>   12.6599    0.0000 </r>
       <r>   12.6655    0.0000 </r>
      </set>
      <set comment="kpoint 9">
       <r>  -17.7998    1.0000 </r>
       <r>  -16.6921    1.0000 </r>
       <r>  -16.6860    1.0000 </r>
       <r>  -13.9108    1.0000 </r>
       <r>  -13.9037    1.0000 </r>
       <r>  -13.1718    1.0000 </r>
       <r>  -12.4845    1.0000 </r>
       <r>  -12.4806    1.0000 </r>
       <r>  -12.3547    1.0000 </r>
       <r>  -12.0090    1.0000 </r>
       <r>  -11.8925    1.0000 </r>
       <r>  -11.8464    1.0000 </r>
       <r>  -11.8433    1.0000 </r>
       <r>  -11.4532    1.0000 </r>
       <r>  -11.4506    1.0000 </r>
       <r>  -11.0144    1.0000 </r>
       <r>  -11.0109    1.0000 </r>
       <r>  -10.8685    1.0000 </r>
       <r>  -10.8663    1.0000 </r>
       <r>  -10.6296    1.0000 </r>
       <r>  -10.6279    1.0000 </r>
       <r>  -10.4257    1.0000 </r>
       <r>  -10.2651    1.0000 </r>
       <r>  -10.2375    1.0000 </r>
       <r>    8.2994    0.0000 </r>
       <r>    9.5069    0.0000 </r>
       <r>    9.5093    0.0000 </r>
       <r>    9.6890    0.0000 </r>
       <r>   11.0394    0.0000 </r>
       <r>   11.4507    0.0000 </r>
       <r>   11.4527    0.0000 </r>
       <r>   11.7169    0.0000 </r>
       <r>   11.7231    0.0000 </r>
       <r>   11.7423    0.0000 </r>
       <r>   11.7559    0.0000 </r>
       <r>   11.7778    0.0000 </r>
       <r>   11.7830    0.0000 </r>
       <r>   11.9332    0.0000 </r>
       <r>   12.6612    0.0000 </r>
       <r>   12.6669    0.0000 </r>
      </set>
      <set comment="kpoint 10">
       <r>  -17.6307    1.0000 </r>
       <r>  -16.5318    1.0000 </r>
       <r>  -16.5257    1.0000 </r>
       <r>  -13.8852    1.0000 </r>
       <r>  -13.7808    1.0000 </r>
       <r>  -13.7738    1.0000 </r>
       <r>  -13.0973    1.0000 </r>
       <r>  -13.0928    1.0000 </r>
       <r>  -12.2509    1.0000 </r>
       <r>  -11.9107    1.0000 </r>
       <r>  -11.7594    1.0000 </r>
       <r>  -11.7564    1.0000 </r>
       <r>  -11.4067    1.0000 </r>
       <r>  -11.3390    1.0000 </r>
       <r>  -11.3347    1.0000 </r>
       <r>  -11.0977    1.0000 </r>
       <r>  -11.0957    1.0000 </r>
       <r>  -10.8208    1.0000 </r>
       <r>  -10.8186    1.0000 </r>
       <r>  -10.5816    1.0000 </r>
       <r>  -10.5804    1.0000 </r>
       <r>  -10.3995    1.0000 </r>
       <r>  -10.3895    1.0000 </r>
       <r>  -10.3523    1.0000 </r>
       <r>    8.5413    0.0000 </r>
       <r>    9.7358    0.0000 </r>
       <r>    9.7382    0.0000 </r>
       <r>    9.8593    0.0000 </r>
       <r>   10.9410    0.0000 </r>
       <r>   11.6591    0.0000 </r>
       <r>   11.6619    0.0000 </r>
       <r>   11.8500    0.0000 </r>
       <r>   11.8649    0.0000 </r>
       <r>   11.9228    0.0000 </r>
       <r>   11.9271    0.0000 </r>
       <r>   12.1718    0.0000 </r>
       <r>   12.1786    0.0000 </r>
       <r>   12.7122    0.0000 </r>
       <r>   12.8364    0.0000 </r>
       <r>   12.8434    0.0000 </r>
      </set>
      <set comment="kpoint 11">
       <r>  -17.6307    1.0000 </r>
       <r>  -16.5318    1.0000 </r>
       <r>  -16.5257    1.0000 </r>
       <r>  -13.8853    1.0000 </r>
       <r>  -13.7808    1.0000 </r>
       <r>  -13.7738    1.0000 </r>
       <r>  -13.0973    1.0000 </r>
       <r>  -13.0929    1.0000 </r>
       <r>  -12.2510    1.0000 </r>
       <r>  -11.9107    1.0000 </r>
       <r>  -11.7594    1.0000 </r>
       <r>  -11.7564    1.0000 </r>
       <r>  -11.4059    1.0000 </r>
       <r>  -11.3389    1.0000 </r>
       <r>  -11.3346    1.0000 </r>
       <r>  -11.0973    1.0000 </r>
       <r>  -11.0954    1.0000 </r>
       <r>  -10.8207    1.0000 </r>
       <r>  -10.8186    1.0000 </r>
       <r>  -10.5818    1.0000 </r>
       <r>  -10.5810    1.0000 </r>
       <r>  -10.3994    1.0000 </r>
       <r>  -10.3904    1.0000 </r>
       <r>  -10.3521    1.0000 </r>
       <r>    8.5413    0.0000 </r>
       <r>    9.7358    0.0000 </r>
       <r>    9.7382    0.0000 </r>
       <r>    9.8592    0.0000 </r>
       <r>   10.9430    0.0000 </r>
       <r>   11.6609    0.0000 </r>
       <r>   11.6626    0.0000 </r>
       <r>   11.8499    0.0000 </r>
       <r>   11.8648    0.0000 </r>
       <r>   11.9227    0.0000 </r>
       <r>   11.9271    0.0000 </r>
       <r>   12.1710    0.0000 </r>
       <r>   12.1779    0.0000 </r>
       <r>   12.7102    0.0000 </r>
       <r>   12.8374    0.0000 </r>
       <r>   12.8443    0.0000 </r>
      </set>
      <set comment="kpoint 12">
       <r>  -17.3521    1.0000 </r>
       <r>  -16.2685    1.0000 </r>
       <r>  -16.2625    1.0000 </r>
       <r>  -14.6008    1.0000 </r>
       <r>  -13.7301    1.0000 </r>
       <r>  -13.7252    1.0000 </r>
       <r>  -13.5694    1.0000 </r>
       <r>  -13.5626    1.0000 </r>
       <r>  -12.0845    1.0000 </r>
       <r>  -11.7530    1.0000 </r>
       <r>  -11.7221    1.0000 </r>
       <r>  -11.7171    1.0000 </r>
       <r>  -11.6218    1.0000 </r>
       <r>  -11.6189    1.0000 </r>
       <r>  -11.1055    1.0000 </r>
       <r>  -10.8940    1.0000 </r>
       <r>  -10.8923    1.0000 </r>
       <r>  -10.7508    1.0000 </r>
       <r>  -10.7488    1.0000 </r>
       <r>  -10.5948    1.0000 </r>
       <r>  -10.5937    1.0000 </r>
       <r>  -10.5382    1.0000 </r>
       <r>  -10.5165    1.0000 </r>
       <r>  -10.3664    1.0000 </r>
       <r>    8.9444    0.0000 </r>
       <r>   10.1136    0.0000 </r>
       <r>   10.1158    0.0000 </r>
       <r>   10.1276    0.0000 </r>
       <r>   11.0129    0.0000 </r>
       <r>   12.0138    0.0000 </r>
       <r>   12.0286    0.0000 </r>
       <r>   12.0564    0.0000 </r>
       <r>   12.0596    0.0000 </r>
       <r>   12.2518    0.0000 </r>
       <r>   12.2562    0.0000 </r>
       <r>   12.4488    0.0000 </r>
       <r>   12.4579    0.0000 </r>
       <r>   13.3378    0.0000 </r>
       <r>   13.3452    0.0000 </r>
       <r>   13.3676    0.0000 </r>
      </set>
      <set comment="kpoint 13">
       <r>  -17.3521    1.0000 </r>
       <r>  -16.2685    1.0000 </r>
       <r>  -16.2625    1.0000 </r>
       <r>  -14.6009    1.0000 </r>
       <r>  -13.7302    1.0000 </r>
       <r>  -13.7252    1.0000 </r>
       <r>  -13.5694    1.0000 </r>
       <r>  -13.5626    1.0000 </r>
       <r>  -12.0847    1.0000 </r>
       <r>  -11.7530    1.0000 </r>
       <r>  -11.7220    1.0000 </r>
       <r>  -11.7171    1.0000 </r>
       <r>  -11.6218    1.0000 </r>
       <r>  -11.6190    1.0000 </r>
       <r>  -11.1042    1.0000 </r>
       <r>  -10.8932    1.0000 </r>
       <r>  -10.8919    1.0000 </r>
       <r>  -10.7507    1.0000 </r>
       <r>  -10.7488    1.0000 </r>
       <r>  -10.5951    1.0000 </r>
       <r>  -10.5948    1.0000 </r>
       <r>  -10.5380    1.0000 </r>
       <r>  -10.5179    1.0000 </r>
       <r>  -10.3662    1.0000 </r>
       <r>    8.9444    0.0000 </r>
       <r>   10.1137    0.0000 </r>
       <r>   10.1158    0.0000 </r>
       <r>   10.1274    0.0000 </r>
       <r>   11.0147    0.0000 </r>
       <r>   12.0140    0.0000 </r>
       <r>   12.0286    0.0000 </r>
       <r>   12.0579    0.0000 </r>
       <r>   12.0601    0.0000 </r>
       <r>   12.2517    0.0000 </r>
       <r>   12.2562    0.0000 </r>
       <r>   12.4487    0.0000 </r>
       <r>   12.4579    0.0000 </r>
       <r>   13.3380    0.0000 </r>
       <r>   13.3453    0.0000 </r>
       <r>   13.3676    0.0000 </r>
      </set>
      <set comment="kpoint 14">
       <r>  -16.9693    1.0000 </r>
       <r>  -15.9081    1.0000 </r>
       <r>  -15.9022    1.0000 </r>
       <r>  -15.2888    1.0000 </r>
       <r>  -14.3515    1.0000 </r>
       <r>  -14.3462    1.0000 </r>
       <r>  -13.2850    1.0000 </r>
       <r>  -13.2784    1.0000 </r>
       <r>  -12.1350    1.0000 </r>
       <r>  -12.1294    1.0000 </r>
       <r>  -11.8657    1.0000 </r>
       <r>  -11.5449    1.0000 </r>
       <r>  -11.4453    1.0000 </r>
       <r>  -11.4427    1.0000 </r>
       <r>  -11.1206    1.0000 </r>
       <r>  -10.9012    1.0000 </r>
       <r>  -10.8997    1.0000 </r>
       <r>  -10.7743    1.0000 </r>
       <r>  -10.6729    1.0000 </r>
       <r>  -10.6712    1.0000 </r>
       <r>  -10.5840    1.0000 </r>
       <r>  -10.5835    1.0000 </r>
       <r>  -10.4963    1.0000 </r>
       <r>  -10.3423    1.0000 </r>
       <r>    9.5084    0.0000 </r>
       <r>   10.4621    0.0000 </r>
       <r>   10.6321    0.0000 </r>
       <r>   10.6345    0.0000 </r>
       <r>   11.1062    0.0000 </r>
       <r>   12.1620    0.0000 </r>
       <r>   12.2085    0.0000 </r>
       <r>   12.2228    0.0000 </r>
       <r>   12.3109    0.0000 </r>
       <r>   12.3132    0.0000 </r>
       <r>   12.5511    0.0000 </r>
       <r>   12.5624    0.0000 </r>
       <r>   12.6843    0.0000 </r>
       <r>   12.6883    0.0000 </r>
       <r>   13.8816    0.0000 </r>
       <r>   13.8838    0.0000 </r>
      </set>
      <set comment="kpoint 15">
       <r>  -16.9693    1.0000 </r>
       <r>  -15.9081    1.0000 </r>
       <r>  -15.9022    1.0000 </r>
       <r>  -15.2889    1.0000 </r>
       <r>  -14.3515    1.0000 </r>
       <r>  -14.3463    1.0000 </r>
       <r>  -13.2850    1.0000 </r>
       <r>  -13.2784    1.0000 </r>
       <r>  -12.1349    1.0000 </r>
       <r>  -12.1294    1.0000 </r>
       <r>  -11.8659    1.0000 </r>
       <r>  -11.5449    1.0000 </r>
       <r>  -11.4454    1.0000 </r>
       <r>  -11.4428    1.0000 </r>
       <r>  -11.1195    1.0000 </r>
       <r>  -10.9007    1.0000 </r>
       <r>  -10.8992    1.0000 </r>
       <r>  -10.7742    1.0000 </r>
       <r>  -10.6727    1.0000 </r>
       <r>  -10.6711    1.0000 </r>
       <r>  -10.5847    1.0000 </r>
       <r>  -10.5840    1.0000 </r>
       <r>  -10.4974    1.0000 </r>
       <r>  -10.3420    1.0000 </r>
       <r>    9.5084    0.0000 </r>
       <r>   10.4618    0.0000 </r>
       <r>   10.6321    0.0000 </r>
       <r>   10.6345    0.0000 </r>
       <r>   11.1076    0.0000 </r>
       <r>   12.1620    0.0000 </r>
       <r>   12.2086    0.0000 </r>
       <r>   12.2227    0.0000 </r>
       <r>   12.3116    0.0000 </r>
       <r>   12.3140    0.0000 </r>
       <r>   12.5512    0.0000 </r>
       <r>   12.5625    0.0000 </r>
       <r>   12.6843    0.0000 </r>
       <r>   12.6883    0.0000 </r>
       <r>   13.8812    0.0000 </r>
       <r>   13.8828    0.0000 </r>
      </set>
      <set comment="kpoint 16">
       <r>  -16.4900    1.0000 </r>
       <r>  -15.9250    1.0000 </r>
       <r>  -15.4595    1.0000 </r>
       <r>  -15.4537    1.0000 </r>
       <r>  -14.9350    1.0000 </r>
       <r>  -14.9295    1.0000 </r>
       <r>  -12.9395    1.0000 </r>
       <r>  -12.9331    1.0000 </r>
       <r>  -12.5492    1.0000 </r>
       <r>  -12.5431    1.0000 </r>
       <r>  -11.6103    1.0000 </r>
       <r>  -11.3441    1.0000 </r>
       <r>  -11.3002    1.0000 </r>
       <r>  -11.2470    1.0000 </r>
       <r>  -11.2447    1.0000 </r>
       <r>  -11.0518    1.0000 </r>
       <r>  -11.0501    1.0000 </r>
       <r>  -11.0362    1.0000 </r>
       <r>  -10.6065    1.0000 </r>
       <r>  -10.6051    1.0000 </r>
       <r>  -10.5728    1.0000 </r>
       <r>  -10.5721    1.0000 </r>
       <r>  -10.4003    1.0000 </r>
       <r>  -10.3474    1.0000 </r>
       <r>   10.2331    0.0000 </r>
       <r>   10.8033    0.0000 </r>
       <r>   11.0494    0.0000 </r>
       <r>   11.1181    0.0000 </r>
       <r>   11.2677    0.0000 </r>
       <r>   11.2701    0.0000 </r>
       <r>   11.9376    0.0000 </r>
       <r>   11.9393    0.0000 </r>
       <r>   12.3933    0.0000 </r>
       <r>   12.4071    0.0000 </r>
       <r>   12.5232    0.0000 </r>
       <r>   12.5360    0.0000 </r>
       <r>   13.1658    0.0000 </r>
       <r>   13.1692    0.0000 </r>
       <r>   13.5792    0.0000 </r>
       <r>   13.5816    0.0000 </r>
      </set>
      <set comment="kpoint 17">
       <r>  -16.4900    1.0000 </r>
       <r>  -15.9250    1.0000 </r>
       <r>  -15.4594    1.0000 </r>
       <r>  -15.4537    1.0000 </r>
       <r>  -14.9351    1.0000 </r>
       <r>  -14.9295    1.0000 </r>
       <r>  -12.9395    1.0000 </r>
       <r>  -12.9331    1.0000 </r>
       <r>  -12.5491    1.0000 </r>
       <r>  -12.5431    1.0000 </r>
       <r>  -11.6106    1.0000 </r>
       <r>  -11.3435    1.0000 </r>
       <r>  -11.3002    1.0000 </r>
       <r>  -11.2471    1.0000 </r>
       <r>  -11.2449    1.0000 </r>
       <r>  -11.0516    1.0000 </r>
       <r>  -11.0497    1.0000 </r>
[...]
       <r>  -13.0701    1.0000 </r>
       <r>  -12.0880    1.0000 </r>
       <r>  -12.0833    1.0000 </r>
       <r>  -12.0831    1.0000 </r>
       <r>  -12.0784    1.0000 </r>
       <r>  -11.0312    1.0000 </r>
       <r>  -11.0279    1.0000 </r>
       <r>  -11.0276    1.0000 </r>
       <r>  -11.0242    1.0000 </r>
       <r>  -10.5943    1.0000 </r>
       <r>  -10.5922    1.0000 </r>
       <r>  -10.5919    1.0000 </r>
       <r>  -10.5893    1.0000 </r>
       <r>   11.3631    0.0000 </r>
       <r>   11.3698    0.0000 </r>
       <r>   11.3708    0.0000 </r>
       <r>   11.3751    0.0000 </r>
       <r>   11.5934    0.0000 </r>
       <r>   11.5997    0.0000 </r>
       <r>   11.6006    0.0000 </r>
       <r>   11.6080    0.0000 </r>
       <r>   12.5257    0.0000 </r>
       <r>   12.5337    0.0000 </r>
       <r>   12.5363    0.0000 </r>
       <r>   12.5438    0.0000 </r>
       <r>   13.0955    0.0000 </r>
       <r>   13.1067    0.0000 </r>
       <r>   13.1086    0.0000 </r>
       <r>   13.1197    0.0000 </r>
      </set>
      <set comment="kpoint 266">
       <r>  -14.3686    1.0000 </r>
       <r>  -14.3652    1.0000 </r>
       <r>  -14.3649    1.0000 </r>
       <r>  -14.3616    1.0000 </r>
       <r>  -13.9181    1.0000 </r>
       <r>  -13.9149    1.0000 </r>
       <r>  -13.9145    1.0000 </r>
       <r>  -13.9114    1.0000 </r>
       <r>  -12.7729    1.0000 </r>
       <r>  -12.7672    1.0000 </r>
       <r>  -12.7669    1.0000 </r>
       <r>  -12.7613    1.0000 </r>
       <r>  -12.4328    1.0000 </r>
       <r>  -12.4277    1.0000 </r>
       <r>  -12.4275    1.0000 </r>
       <r>  -12.4221    1.0000 </r>
       <r>  -10.8698    1.0000 </r>
       <r>  -10.8668    1.0000 </r>
       <r>  -10.8665    1.0000 </r>
       <r>  -10.8634    1.0000 </r>
       <r>  -10.7162    1.0000 </r>
       <r>  -10.7137    1.0000 </r>
       <r>  -10.7134    1.0000 </r>
       <r>  -10.7104    1.0000 </r>
       <r>   12.2068    0.0000 </r>
       <r>   12.2198    0.0000 </r>
       <r>   12.2211    0.0000 </r>
       <r>   12.2259    0.0000 </r>
       <r>   12.2305    0.0000 </r>
       <r>   12.2345    0.0000 </r>
       <r>   12.2359    0.0000 </r>
       <r>   12.2451    0.0000 </r>
       <r>   12.7168    0.0000 </r>
       <r>   12.7341    0.0000 </r>
       <r>   12.7365    0.0000 </r>
       <r>   12.7368    0.0000 </r>
       <r>   12.7379    0.0000 </r>
       <r>   12.7385    0.0000 </r>
       <r>   12.7402    0.0000 </r>
       <r>   12.7591    0.0000 </r>
      </set>
     </set>
    </set>
   </array>
  </eigenvalues>
  <separator name="orbital magnetization" >
   <v name="MAGDIPOLOUT">      0.00000000      0.00000000      0.00000000</v>
  </separator>
  <dos>
   <i name="efermi">    -10.12828742 </i>
   <total>
    <array>
     <dimension dim="1">gridpoints</dimension>
     <dimension dim="2">spin</dimension>
     <field>energy</field>
     <field>total</field>
     <field>integrated</field>
     <set>
      <set comment="spin 1">
       <r>   -19.5396     0.0000     0.0000 </r>
       <r>   -19.4208     0.0000     0.0000 </r>
       <r>   -19.3020     0.0000     0.0000 </r>
       <r>   -19.1833     0.0000     0.0000 </r>
       <r>   -19.0645     0.0000     0.0000 </r>
       <r>   -18.9458     0.0000     0.0000 </r>
       <r>   -18.8270     0.0000     0.0000 </r>
       <r>   -18.7083     0.0000     0.0000 </r>
       <r>   -18.5895     0.0000     0.0000 </r>
       <r>   -18.4708     0.0000     0.0000 </r>
       <r>   -18.3520     0.0000     0.0000 </r>
       <r>   -18.2333     0.0000     0.0000 </r>
       <r>   -18.1145     0.0000     0.0000 </r>
       <r>   -17.9958     0.0000     0.0000 </r>
       <r>   -17.8770     0.0337     0.0040 </r>
       <r>   -17.7582     0.3828     0.0720 </r>
       <r>   -17.6395     0.1573     0.1210 </r>
       <r>   -17.5207     0.9501     0.2833 </r>
       <r>   -17.4020     0.3016     0.3426 </r>
       <r>   -17.2832     1.1671     0.5288 </r>
       <r>   -17.1645     0.8498     0.6577 </r>
       <r>   -17.0457     1.0321     0.8460 </r>
       <r>   -16.9270     0.7936     0.9920 </r>
       <r>   -16.8082     0.9715     1.1722 </r>
       <r>   -16.6895     1.5016     1.4397 </r>
       <r>   -16.5707     0.9120     1.6121 </r>
       <r>   -16.4519     1.4595     1.8362 </r>
       <r>   -16.3332     0.9671     2.0656 </r>
       <r>   -16.2144     2.1596     2.3815 </r>
       <r>   -16.0957     1.1481     2.6174 </r>
       <r>   -15.9769     0.8860     2.8287 </r>
       <r>   -15.8582     2.2585     3.1962 </r>
       <r>   -15.7394     1.8093     3.4762 </r>
       <r>   -15.6207     2.0435     3.8146 </r>
       <r>   -15.5019     1.7966     4.0732 </r>
       <r>   -15.3832     2.1024     4.4353 </r>
       <r>   -15.2644     2.4363     4.8083 </r>
       <r>   -15.1457     1.2517     5.1297 </r>
       <r>   -15.0269     2.7830     5.5388 </r>
       <r>   -14.9081     2.3974     5.9400 </r>
       <r>   -14.7894     1.5002     6.2729 </r>
       <r>   -14.6706     1.3424     6.6177 </r>
       <r>   -14.5519     3.1758     7.1688 </r>
       <r>   -14.4331     1.6627     7.5800 </r>
       <r>   -14.3144     2.4057     8.0243 </r>
       <r>   -14.1956     2.4257     8.5040 </r>
       <r>   -14.0769     4.0345     9.1117 </r>
       <r>   -13.9581     2.1876     9.4984 </r>
       <r>   -13.8394     3.9289    10.0916 </r>
       <r>   -13.7206     3.3001    10.6305 </r>
       <r>   -13.6018     3.5542    11.2365 </r>
       <r>   -13.4831     4.4287    11.9312 </r>
       <r>   -13.3643     2.3917    12.3787 </r>
       <r>   -13.2456     3.7978    13.0230 </r>
       <r>   -13.1268     5.0299    13.8057 </r>
       <r>   -13.0081     3.5660    14.4879 </r>
       <r>   -12.8893     4.8499    15.2919 </r>
       <r>   -12.7706     4.2154    16.0120 </r>
       <r>   -12.6518     3.7123    16.7855 </r>
       <r>   -12.5331     6.2136    17.7493 </r>
       <r>   -12.4143     6.0596    18.8143 </r>
       <r>   -12.2956     6.3212    19.7545 </r>
       <r>   -12.1768     6.6008    20.9695 </r>
       <r>   -12.0580     6.0274    22.1097 </r>
       <r>   -11.9393     8.3250    23.7348 </r>
       <r>   -11.8205     7.6692    24.9145 </r>
       <r>   -11.7018     9.5396    26.5154 </r>
       <r>   -11.5830     8.6528    27.8571 </r>
       <r>   -11.4643     7.8497    29.2617 </r>
       <r>   -11.3455     8.1826    30.6952 </r>
       <r>   -11.2268     9.4645    32.3399 </r>
       <r>   -11.1080     6.9133    33.5596 </r>
       <r>   -10.9893    10.7796    35.3672 </r>
       <r>   -10.8705     8.5201    36.8944 </r>
       <r>   -10.7517    10.2089    38.5798 </r>
       <r>   -10.6330    11.8670    40.6479 </r>
       <r>   -10.5142    13.9035    42.9200 </r>
       <r>   -10.3955    16.8364    45.7645 </r>
       <r>   -10.2767     8.2941    47.4925 </r>
       <r>   -10.1580     1.7862    48.0000 </r>
       <r>   -10.0392     0.0000    48.0000 </r>
       <r>    -9.9205     0.0000    48.0000 </r>
       <r>    -9.8017     0.0000    48.0000 </r>
       <r>    -9.6830     0.0000    48.0000 </r>
       <r>    -9.5642     0.0000    48.0000 </r>
       <r>    -9.4455     0.0000    48.0000 </r>
       <r>    -9.3267     0.0000    48.0000 </r>
       <r>    -9.2079     0.0000    48.0000 </r>
       <r>    -9.0892     0.0000    48.0000 </r>
       <r>    -8.9704     0.0000    48.0000 </r>
       <r>    -8.8517     0.0000    48.0000 </r>
       <r>    -8.7329     0.0000    48.0000 </r>
       <r>    -8.6142     0.0000    48.0000 </r>
       <r>    -8.4954     0.0000    48.0000 </r>
       <r>    -8.3767     0.0000    48.0000 </r>
       <r>    -8.2579     0.0000    48.0000 </r>
       <r>    -8.1392     0.0000    48.0000 </r>
       <r>    -8.0204     0.0000    48.0000 </r>
       <r>    -7.9016     0.0000    48.0000 </r>
       <r>    -7.7829     0.0000    48.0000 </r>
       <r>    -7.6641     0.0000    48.0000 </r>
       <r>    -7.5454     0.0000    48.0000 </r>
       <r>    -7.4266     0.0000    48.0000 </r>
       <r>    -7.3079     0.0000    48.0000 </r>
       <r>    -7.1891     0.0000    48.0000 </r>
       <r>    -7.0704     0.0000    48.0000 </r>
       <r>    -6.9516     0.0000    48.0000 </r>
       <r>    -6.8329     0.0000    48.0000 </r>
       <r>    -6.7141     0.0000    48.0000 </r>
       <r>    -6.5954     0.0000    48.0000 </r>
       <r>    -6.4766     0.0000    48.0000 </r>
       <r>    -6.3578     0.0000    48.0000 </r>
       <r>    -6.2391     0.0000    48.0000 </r>
       <r>    -6.1203     0.0000    48.0000 </r>
       <r>    -6.0016     0.0000    48.0000 </r>
       <r>    -5.8828     0.0000    48.0000 </r>
       <r>    -5.7641     0.0000    48.0000 </r>
       <r>    -5.6453     0.0000    48.0000 </r>
       <r>    -5.5266     0.0000    48.0000 </r>
       <r>    -5.4078     0.0000    48.0000 </r>
       <r>    -5.2891     0.0000    48.0000 </r>
       <r>    -5.1703     0.0000    48.0000 </r>
       <r>    -5.0515     0.0000    48.0000 </r>
       <r>    -4.9328     0.0000    48.0000 </r>
       <r>    -4.8140     0.0000    48.0000 </r>
       <r>    -4.6953     0.0000    48.0000 </r>
       <r>    -4.5765     0.0000    48.0000 </r>
       <r>    -4.4578     0.0000    48.0000 </r>
       <r>    -4.3390     0.0000    48.0000 </r>
       <r>    -4.2203     0.0000    48.0000 </r>
       <r>    -4.1015     0.0000    48.0000 </r>
       <r>    -3.9828     0.0000    48.0000 </r>
       <r>    -3.8640     0.0000    48.0000 </r>
       <r>    -3.7453     0.0000    48.0000 </r>
       <r>    -3.6265     0.0000    48.0000 </r>
       <r>    -3.5077     0.0000    48.0000 </r>
       <r>    -3.3890     0.0000    48.0000 </r>
       <r>    -3.2702     0.0000    48.0000 </r>
       <r>    -3.1515     0.0000    48.0000 </r>
       <r>    -3.0327     0.0000    48.0000 </r>
       <r>    -2.9140     0.0000    48.0000 </r>
       <r>    -2.7952     0.0000    48.0000 </r>
       <r>    -2.6765     0.0000    48.0000 </r>
       <r>    -2.5577     0.0000    48.0000 </r>
       <r>    -2.4390     0.0000    48.0000 </r>
       <r>    -2.3202     0.0000    48.0000 </r>
       <r>    -2.2014     0.0000    48.0000 </r>
       <r>    -2.0827     0.0000    48.0000 </r>
       <r>    -1.9639     0.0000    48.0000 </r>
       <r>    -1.8452     0.0000    48.0000 </r>
       <r>    -1.7264     0.0000    48.0000 </r>
       <r>    -1.6077     0.0000    48.0000 </r>
       <r>    -1.4889     0.0000    48.0000 </r>
       <r>    -1.3702     0.0000    48.0000 </r>
       <r>    -1.2514     0.0000    48.0000 </r>
       <r>    -1.1327     0.0000    48.0000 </r>
       <r>    -1.0139     0.0000    48.0000 </r>
       <r>    -0.8952     0.0000    48.0000 </r>
       <r>    -0.7764     0.0000    48.0000 </r>
       <r>    -0.6576     0.0000    48.0000 </r>
       <r>    -0.5389     0.0000    48.0000 </r>
       <r>    -0.4201     0.0000    48.0000 </r>
       <r>    -0.3014     0.0000    48.0000 </r>
       <r>    -0.1826     0.0000    48.0000 </r>
       <r>    -0.0639     0.0000    48.0000 </r>
       <r>     0.0549     0.0000    48.0000 </r>
       <r>     0.1736     0.0000    48.0000 </r>
       <r>     0.2924     0.0000    48.0000 </r>
       <r>     0.4111     0.0000    48.0000 </r>
       <r>     0.5299     0.0000    48.0000 </r>
       <r>     0.6487     0.0000    48.0000 </r>
       <r>     0.7674     0.0000    48.0000 </r>
       <r>     0.8862     0.0000    48.0000 </r>
       <r>     1.0049     0.0000    48.0000 </r>
       <r>     1.1237     0.0000    48.0000 </r>
       <r>     1.2424     0.0000    48.0000 </r>
       <r>     1.3612     0.0000    48.0000 </r>
       <r>     1.4799     0.0000    48.0000 </r>
       <r>     1.5987     0.0000    48.0000 </r>
       <r>     1.7174     0.0000    48.0000 </r>
       <r>     1.8362     0.0000    48.0000 </r>
       <r>     1.9550     0.0000    48.0000 </r>
       <r>     2.0737     0.0000    48.0000 </r>
       <r>     2.1925     0.0000    48.0000 </r>
       <r>     2.3112     0.0000    48.0000 </r>
       <r>     2.4300     0.0000    48.0000 </r>
       <r>     2.5487     0.0000    48.0000 </r>
       <r>     2.6675     0.0000    48.0000 </r>
       <r>     2.7862     0.0000    48.0000 </r>
       <r>     2.9050     0.0000    48.0000 </r>
       <r>     3.0237     0.0000    48.0000 </r>
       <r>     3.1425     0.0000    48.0000 </r>
       <r>     3.2612     0.0000    48.0000 </r>
       <r>     3.3800     0.0000    48.0000 </r>
       <r>     3.4988     0.0000    48.0000 </r>
       <r>     3.6175     0.0000    48.0000 </r>
       <r>     3.7363     0.0000    48.0000 </r>
       <r>     3.8550     0.0000    48.0000 </r>
       <r>     3.9738     0.0000    48.0000 </r>
       <r>     4.0925     0.0000    48.0000 </r>
       <r>     4.2113     0.0000    48.0000 </r>
       <r>     4.3300     0.0000    48.0000 </r>
       <r>     4.4488     0.0000    48.0000 </r>
       <r>     4.5675     0.0000    48.0000 </r>
       <r>     4.6863     0.0000    48.0000 </r>
       <r>     4.8051     0.0000    48.0000 </r>
       <r>     4.9238     0.0000    48.0000 </r>
       <r>     5.0426     0.0000    48.0000 </r>
       <r>     5.1613     0.0000    48.0000 </r>
       <r>     5.2801     0.0000    48.0000 </r>
       <r>     5.3988     0.0000    48.0000 </r>
       <r>     5.5176     0.0000    48.0000 </r>
       <r>     5.6363     0.0000    48.0000 </r>
       <r>     5.7551     0.0000    48.0000 </r>
       <r>     5.8738     0.0000    48.0000 </r>
       <r>     5.9926     0.0000    48.0000 </r>
       <r>     6.1113     0.0000    48.0000 </r>
       <r>     6.2301     0.0000    48.0000 </r>
       <r>     6.3489     0.0000    48.0000 </r>
       <r>     6.4676     0.0000    48.0000 </r>
       <r>     6.5864     0.0000    48.0000 </r>
       <r>     6.7051     0.0000    48.0000 </r>
       <r>     6.8239     0.0000    48.0000 </r>
       <r>     6.9426     0.0000    48.0000 </r>
       <r>     7.0614     0.0000    48.0000 </r>
       <r>     7.1801     0.0000    48.0000 </r>
       <r>     7.2989     0.0000    48.0000 </r>
       <r>     7.4176     0.0000    48.0000 </r>
       <r>     7.5364     0.0000    48.0000 </r>
       <r>     7.6552     0.0000    48.0000 </r>
       <r>     7.7739     0.0000    48.0000 </r>
       <r>     7.8927     0.0000    48.0000 </r>
       <r>     8.0114     0.0000    48.0000 </r>
       <r>     8.1302     0.0190    48.0023 </r>
       <r>     8.2489     0.1276    48.0189 </r>
       <r>     8.3677     0.1277    48.0341 </r>
       <r>     8.4864     0.3301    48.0809 </r>
       <r>     8.6052     0.5103    48.1477 </r>
       <r>     8.7239     0.1315    48.1633 </r>
       <r>     8.8427     0.6414    48.2542 </r>
       <r>     8.9614     0.1902    48.2840 </r>
       <r>     9.0802     0.4028    48.3319 </r>
       <r>     9.1990     0.5475    48.4097 </r>
       <r>     9.3177     1.3481    48.6260 </r>
       <r>     9.4365     2.6532    49.0083 </r>
       <r>     9.5552     2.9723    49.4666 </r>
       <r>     9.6740     2.7148    49.9133 </r>
       <r>     9.7927     3.5193    50.5088 </r>
       <r>     9.9115     2.6594    50.9522 </r>
       <r>    10.0302     3.1475    51.5404 </r>
       <r>    10.1490     3.1255    52.1590 </r>
       <r>    10.2677     4.1059    52.7755 </r>
       <r>    10.3865     3.1415    53.3428 </r>
       <r>    10.5053     3.6251    54.1729 </r>
       <r>    10.6240     4.6056    54.9484 </r>
       <r>    10.7428     2.9407    55.6219 </r>
       <r>    10.8615     4.9209    56.5010 </r>
       <r>    10.9803     4.1115    57.1776 </r>
       <r>    11.0990     8.1356    58.4358 </r>
       <r>    11.2178     5.8011    59.3859 </r>
       <r>    11.3365     4.6947    60.4363 </r>
       <r>    11.4553     5.0876    61.2784 </r>
       <r>    11.5740     5.3249    62.2687 </r>
       <r>    11.6928     7.1083    63.5563 </r>
       <r>    11.8115     5.6122    64.6286 </r>
       <r>    11.9303     6.7234    65.8552 </r>
       <r>    12.0491     8.5838    67.2163 </r>
       <r>    12.1678     5.4641    68.2474 </r>
       <r>    12.2866     9.3356    69.8738 </r>
       <r>    12.4053     6.4008    71.0480 </r>
       <r>    12.5241     8.0784    72.4669 </r>
       <r>    12.6428     5.2206    73.6124 </r>
       <r>    12.7616     5.4988    74.6000 </r>
       <r>    12.8803     3.9744    75.3583 </r>
       <r>    12.9991     3.8573    76.0490 </r>
       <r>    13.1178     4.2748    76.7425 </r>
       <r>    13.2366     3.4773    77.3145 </r>
       <r>    13.3554     6.6318    78.3860 </r>
       <r>    13.4741     1.9519    78.6636 </r>
       <r>    13.5929     0.6771    78.7963 </r>
       <r>    13.7116     1.1277    78.9673 </r>
       <r>    13.8304     1.7532    79.2612 </r>
       <r>    13.9491     1.6868    79.5640 </r>
       <r>    14.0679     1.3738    79.7919 </r>
       <r>    14.1866     0.4135    79.8521 </r>
       <r>    14.3054     0.3963    79.9107 </r>
       <r>    14.4241     0.1679    79.9593 </r>
       <r>    14.5429     0.0638    80.0000 </r>
       <r>    14.6616     0.0000    80.0000 </r>
       <r>    14.7804     0.0000    80.0000 </r>
       <r>    14.8992     0.0000    80.0000 </r>
       <r>    15.0179     0.0000    80.0000 </r>
       <r>    15.1367     0.0000    80.0000 </r>
       <r>    15.2554     0.0000    80.0000 </r>
       <r>    15.3742     0.0000    80.0000 </r>
       <r>    15.4929     0.0000    80.0000 </r>
       <r>    15.6117     0.0000    80.0000 </r>
       <r>    15.7304     0.0000    80.0000 </r>
       <r>    15.8492     0.0000    80.0000 </r>
       <r>    15.9679     0.0000    80.0000 </r>
       <r>    16.0867     0.0000    80.0000 </r>
      </set>
     </set>
    </array>
   </total>
  </dos>
 </calculation>
 <structure name="finalpos" >
  <crystal>
   <varray name="basis" >
    <v>       1.95429405       3.38493658       0.00000000 </v>
    <v>      -2.93144107       1.69246829       0.00000000 </v>
    <v>       0.00000000       0.00000000       9.56312345 </v>
   </varray>
   <i name="volume">    126.52321019 </i>
   <varray name="rec_basis" >
    <v>       0.12792343       0.22156988      -0.00000000 </v>
    <v>      -0.25584686       0.14771325       0.00000000 </v>
    <v>       0.00000000      -0.00000000       0.10456835 </v>
   </varray>
  </crystal>
  <varray name="positions" >
   <v>       0.24908016       0.16574683       0.08241349 </v>
   <v>       0.50000000       0.66666667       0.08333333 </v>
   <v>       0.75000000       0.16666667       0.08333333 </v>
   <v>       0.00000000       0.66666667       0.08333333 </v>
   <v>       0.25000000       0.16666667       0.41666667 </v>
   <v>       0.50000000       0.66666667       0.41666667 </v>
   <v>       0.75000000       0.16666667       0.41666667 </v>
   <v>       0.00000000       0.66666667       0.41666667 </v>
   <v>       0.25000000       0.16666667       0.75000000 </v>
   <v>       0.50000000       0.66666667       0.75000000 </v>
   <v>       0.75000000       0.16666667       0.75000000 </v>
   <v>       0.00000000       0.66666667       0.75000000 </v>
   <v>       0.25000000       0.83333333       0.25000000 </v>
   <v>       0.50000000       0.33333333       0.25000000 </v>
   <v>       0.75000000       0.83333333       0.25000000 </v>
   <v>       0.00000000       0.33333333       0.25000000 </v>
   <v>       0.25000000       0.83333333       0.58333333 </v>
   <v>       0.50000000       0.33333333       0.58333333 </v>
   <v>       0.75000000       0.83333333       0.58333333 </v>
   <v>       0.00000000       0.33333333       0.58333333 </v>
   <v>       0.25000000       0.83333333       0.91666667 </v>
   <v>       0.50000000       0.33333333       0.91666667 </v>
   <v>       0.75000000       0.83333333       0.91666667 </v>
   <v>       0.00000000       0.33333333       0.91666667 </v>
  </varray>
 </structure>
</modeling>
