phonopy:
  version: "2.33.3"
  frequency_unit_conversion_factor: 15.633302
  symmetry_tolerance: 1.00000e-05
  configuration:
    create_force_constants: "True"
    dim: "4 0 0 0 4 0 0 0 4"

physical_unit:
  atomic_mass: "AMU"
  length: "angstrom"
  force_constants: "eV/angstrom^2"

space_group:
  type: "Pm-3m"
  number: 221
  Hall_symbol: "-P 4 2 3"

supercell_matrix:
- [   4,   0,   0 ]
- [   0,   4,   0 ]
- [   0,   0,   4 ]

primitive_cell:
  lattice:
  - [     4.143698340000000,     0.000000000000000,     0.000000000000000 ] # a
  - [     0.000000000000000,     4.143698340000000,     0.000000000000000 ] # b
  - [     0.000000000000000,     0.000000000000000,     4.143698340000000 ] # c
  points:
  - symbol: Cs # 1
    coordinates: [  0.000000000000000,  0.000000000000000,  0.000000000000000 ]
    mass: 132.905452
  - symbol: Cl # 2
    coordinates: [  0.500000000000000,  0.500000000000000,  0.500000000000000 ]
    mass: 35.453000
  reciprocal_lattice: # without 2pi
  - [     0.241330308808146,     0.000000000000000,     0.000000000000000 ] # a*
  - [     0.000000000000000,     0.241330308808146,     0.000000000000000 ] # b*
  - [     0.000000000000000,     0.000000000000000,     0.241330308808146 ] # c*

unit_cell:
  lattice:
  - [     4.143698340000000,     0.000000000000000,     0.000000000000000 ] # a
  - [     0.000000000000000,     4.143698340000000,     0.000000000000000 ] # b
  - [     0.000000000000000,     0.000000000000000,     4.143698340000000 ] # c
  points:
  - symbol: Cs # 1
    coordinates: [  0.000000000000000,  0.000000000000000,  0.000000000000000 ]
    mass: 132.905452
    reduced_to: 1
  - symbol: Cl # 2
    coordinates: [  0.500000000000000,  0.500000000000000,  0.500000000000000 ]
    mass: 35.453000
    reduced_to: 2

supercell:
  lattice:
  - [    16.574793360000001,     0.000000000000000,     0.000000000000000 ] # a
  - [     0.000000000000000,    16.574793360000001,     0.000000000000000 ] # b
  - [     0.000000000000000,     0.000000000000000,    16.574793360000001 ] # c
  points:
  - symbol: Cs # 1
    coordinates: [  0.000000000000000,  0.000000000000000,  0.000000000000000 ]
    mass: 132.905452
    reduced_to: 1
  - symbol: Cs # 2
    coordinates: [  0.250000000000000,  0.000000000000000,  0.000000000000000 ]
    mass: 132.905452
    reduced_to: 1
  - symbol: Cs # 3
    coordinates: [  0.500000000000000,  0.000000000000000,  0.000000000000000 ]
    mass: 132.905452
    reduced_to: 1
  - symbol: Cs # 4
    coordinates: [  0.750000000000000,  0.000000000000000,  0.000000000000000 ]
    mass: 132.905452
    reduced_to: 1
  - symbol: Cs # 5
    coordinates: [  0.000000000000000,  0.250000000000000,  0.000000000000000 ]
    mass: 132.905452
    reduced_to: 1
  - symbol: Cs # 6
    coordinates: [  0.250000000000000,  0.250000000000000,  0.000000000000000 ]
    mass: 132.905452
    reduced_to: 1
  - symbol: Cs # 7
    coordinates: [  0.500000000000000,  0.250000000000000,  0.000000000000000 ]
    mass: 132.905452
    reduced_to: 1
  - symbol: Cs # 8
    coordinates: [  0.750000000000000,  0.250000000000000,  0.000000000000000 ]
    mass: 132.905452
    reduced_to: 1
  - symbol: Cs # 9
    coordinates: [  0.000000000000000,  0.500000000000000,  0.000000000000000 ]
    mass: 132.905452
    reduced_to: 1
  - symbol: Cs # 10
    coordinates: [  0.250000000000000,  0.500000000000000,  0.000000000000000 ]
    mass: 132.905452
    reduced_to: 1
  - symbol: Cs # 11
    coordinates: [  0.500000000000000,  0.500000000000000,  0.000000000000000 ]
    mass: 132.905452
    reduced_to: 1
  - symbol: Cs # 12
    coordinates: [  0.750000000000000,  0.500000000000000,  0.000000000000000 ]
    mass: 132.905452
    reduced_to: 1
  - symbol: Cs # 13
    coordinates: [  0.000000000000000,  0.750000000000000,  0.000000000000000 ]
    mass: 132.905452
    reduced_to: 1
  - symbol: Cs # 14
    coordinates: [  0.250000000000000,  0.750000000000000,  0.000000000000000 ]
    mass: 132.905452
    reduced_to: 1
  - symbol: Cs # 15
    coordinates: [  0.500000000000000,  0.750000000000000,  0.000000000000000 ]
    mass: 132.905452
    reduced_to: 1
  - symbol: Cs # 16
    coordinates: [  0.750000000000000,  0.750000000000000,  0.000000000000000 ]
    mass: 132.905452
    reduced_to: 1
  - symbol: Cs # 17
    coordinates: [  0.000000000000000,  0.000000000000000,  0.250000000000000 ]
    mass: 132.905452
    reduced_to: 1
  - symbol: Cs # 18
    coordinates: [  0.250000000000000,  0.000000000000000,  0.250000000000000 ]
    mass: 132.905452
    reduced_to: 1
  - symbol: Cs # 19
    coordinates: [  0.500000000000000,  0.000000000000000,  0.250000000000000 ]
    mass: 132.905452
    reduced_to: 1
  - symbol: Cs # 20
    coordinates: [  0.750000000000000,  0.000000000000000,  0.250000000000000 ]
    mass: 132.905452
    reduced_to: 1
  - symbol: Cs # 21
    coordinates: [  0.000000000000000,  0.250000000000000,  0.250000000000000 ]
    mass: 132.905452
    reduced_to: 1
  - symbol: Cs # 22
    coordinates: [  0.250000000000000,  0.250000000000000,  0.250000000000000 ]
    mass: 132.905452
    reduced_to: 1
  - symbol: Cs # 23
    coordinates: [  0.500000000000000,  0.250000000000000,  0.250000000000000 ]
    mass: 132.905452
    reduced_to: 1
  - symbol: Cs # 24
    coordinates: [  0.750000000000000,  0.250000000000000,  0.250000000000000 ]
    mass: 132.905452
    reduced_to: 1
  - symbol: Cs # 25
    coordinates: [  0.000000000000000,  0.500000000000000,  0.250000000000000 ]
    mass: 132.905452
    reduced_to: 1
  - symbol: Cs # 26
    coordinates: [  0.250000000000000,  0.500000000000000,  0.250000000000000 ]
    mass: 132.905452
    reduced_to: 1
  - symbol: Cs # 27
    coordinates: [  0.500000000000000,  0.500000000000000,  0.250000000000000 ]
    mass: 132.905452
    reduced_to: 1
  - symbol: Cs # 28
    coordinates: [  0.750000000000000,  0.500000000000000,  0.250000000000000 ]
    mass: 132.905452
    reduced_to: 1
  - symbol: Cs # 29
    coordinates: [  0.000000000000000,  0.750000000000000,  0.250000000000000 ]
    mass: 132.905452
    reduced_to: 1
  - symbol: Cs # 30
    coordinates: [  0.250000000000000,  0.750000000000000,  0.250000000000000 ]
    mass: 132.905452
    reduced_to: 1
  - symbol: Cs # 31
    coordinates: [  0.500000000000000,  0.750000000000000,  0.250000000000000 ]
    mass: 132.905452
    reduced_to: 1
  - symbol: Cs # 32
    coordinates: [  0.750000000000000,  0.750000000000000,  0.250000000000000 ]
    mass: 132.905452
    reduced_to: 1
  - symbol: Cs # 33
    coordinates: [  0.000000000000000,  0.000000000000000,  0.500000000000000 ]
    mass: 132.905452
    reduced_to: 1
  - symbol: Cs # 34
    coordinates: [  0.250000000000000,  0.000000000000000,  0.500000000000000 ]
    mass: 132.905452
    reduced_to: 1
  - symbol: Cs # 35
    coordinates: [  0.500000000000000,  0.000000000000000,  0.500000000000000 ]
    mass: 132.905452
    reduced_to: 1
  - symbol: Cs # 36
    coordinates: [  0.750000000000000,  0.000000000000000,  0.500000000000000 ]
    mass: 132.905452
    reduced_to: 1
  - symbol: Cs # 37
    coordinates: [  0.000000000000000,  0.250000000000000,  0.500000000000000 ]
    mass: 132.905452
    reduced_to: 1
  - symbol: Cs # 38
    coordinates: [  0.250000000000000,  0.250000000000000,  0.500000000000000 ]
    mass: 132.905452
    reduced_to: 1
  - symbol: Cs # 39
    coordinates: [  0.500000000000000,  0.250000000000000,  0.500000000000000 ]
    mass: 132.905452
    reduced_to: 1
  - symbol: Cs # 40
    coordinates: [  0.750000000000000,  0.250000000000000,  0.500000000000000 ]
    mass: 132.905452
    reduced_to: 1
  - symbol: Cs # 41
    coordinates: [  0.000000000000000,  0.500000000000000,  0.500000000000000 ]
    mass: 132.905452
    reduced_to: 1
  - symbol: Cs # 42
    coordinates: [  0.250000000000000,  0.500000000000000,  0.500000000000000 ]
    mass: 132.905452
    reduced_to: 1
  - symbol: Cs # 43
    coordinates: [  0.500000000000000,  0.500000000000000,  0.500000000000000 ]
    mass: 132.905452
    reduced_to: 1
  - symbol: Cs # 44
    coordinates: [  0.750000000000000,  0.500000000000000,  0.500000000000000 ]
    mass: 132.905452
    reduced_to: 1
  - symbol: Cs # 45
    coordinates: [  0.000000000000000,  0.750000000000000,  0.500000000000000 ]
    mass: 132.905452
    reduced_to: 1
  - symbol: Cs # 46
    coordinates: [  0.250000000000000,  0.750000000000000,  0.500000000000000 ]
    mass: 132.905452
    reduced_to: 1
  - symbol: Cs # 47
    coordinates: [  0.500000000000000,  0.750000000000000,  0.500000000000000 ]
    mass: 132.905452
    reduced_to: 1
  - symbol: Cs # 48
    coordinates: [  0.750000000000000,  0.750000000000000,  0.500000000000000 ]
    mass: 132.905452
    reduced_to: 1
  - symbol: Cs # 49
    coordinates: [  0.000000000000000,  0.000000000000000,  0.750000000000000 ]
    mass: 132.905452
    reduced_to: 1
  - symbol: Cs # 50
    coordinates: [  0.250000000000000,  0.000000000000000,  0.750000000000000 ]
    mass: 132.905452
    reduced_to: 1
  - symbol: Cs # 51
    coordinates: [  0.500000000000000,  0.000000000000000,  0.750000000000000 ]
    mass: 132.905452
    reduced_to: 1
  - symbol: Cs # 52
    coordinates: [  0.750000000000000,  0.000000000000000,  0.750000000000000 ]
    mass: 132.905452
    reduced_to: 1
  - symbol: Cs # 53
    coordinates: [  0.000000000000000,  0.250000000000000,  0.750000000000000 ]
    mass: 132.905452
    reduced_to: 1
  - symbol: Cs # 54
    coordinates: [  0.250000000000000,  0.250000000000000,  0.750000000000000 ]
    mass: 132.905452
    reduced_to: 1
  - symbol: Cs # 55
    coordinates: [  0.500000000000000,  0.250000000000000,  0.750000000000000 ]
    mass: 132.905452
    reduced_to: 1
  - symbol: Cs # 56
    coordinates: [  0.750000000000000,  0.250000000000000,  0.750000000000000 ]
    mass: 132.905452
    reduced_to: 1
  - symbol: Cs # 57
    coordinates: [  0.000000000000000,  0.500000000000000,  0.750000000000000 ]
    mass: 132.905452
    reduced_to: 1
  - symbol: Cs # 58
    coordinates: [  0.250000000000000,  0.500000000000000,  0.750000000000000 ]
    mass: 132.905452
    reduced_to: 1
  - symbol: Cs # 59
    coordinates: [  0.500000000000000,  0.500000000000000,  0.750000000000000 ]
    mass: 132.905452
    reduced_to: 1
  - symbol: Cs # 60
    coordinates: [  0.750000000000000,  0.500000000000000,  0.750000000000000 ]
    mass: 132.905452
    reduced_to: 1
  - symbol: Cs # 61
    coordinates: [  0.000000000000000,  0.750000000000000,  0.750000000000000 ]
    mass: 132.905452
    reduced_to: 1
  - symbol: Cs # 62
    coordinates: [  0.250000000000000,  0.750000000000000,  0.750000000000000 ]
    mass: 132.905452
    reduced_to: 1
  - symbol: Cs # 63
    coordinates: [  0.500000000000000,  0.750000000000000,  0.750000000000000 ]
    mass: 132.905452
    reduced_to: 1
  - symbol: Cs # 64
    coordinates: [  0.750000000000000,  0.750000000000000,  0.750000000000000 ]
    mass: 132.905452
    reduced_to: 1
  - symbol: Cl # 65
    coordinates: [  0.125000000000000,  0.125000000000000,  0.125000000000000 ]
    mass: 35.453000
    reduced_to: 65
  - symbol: Cl # 66
    coordinates: [  0.375000000000000,  0.125000000000000,  0.125000000000000 ]
    mass: 35.453000
    reduced_to: 65
  - symbol: Cl # 67
    coordinates: [  0.625000000000000,  0.125000000000000,  0.125000000000000 ]
    mass: 35.453000
    reduced_to: 65
  - symbol: Cl # 68
    coordinates: [  0.875000000000000,  0.125000000000000,  0.125000000000000 ]
    mass: 35.453000
    reduced_to: 65
  - symbol: Cl # 69
    coordinates: [  0.125000000000000,  0.375000000000000,  0.125000000000000 ]
    mass: 35.453000
    reduced_to: 65
  - symbol: Cl # 70
    coordinates: [  0.375000000000000,  0.375000000000000,  0.125000000000000 ]
    mass: 35.453000
    reduced_to: 65
  - symbol: Cl # 71
    coordinates: [  0.625000000000000,  0.375000000000000,  0.125000000000000 ]
    mass: 35.453000
    reduced_to: 65
  - symbol: Cl # 72
    coordinates: [  0.875000000000000,  0.375000000000000,  0.125000000000000 ]
    mass: 35.453000
    reduced_to: 65
  - symbol: Cl # 73
    coordinates: [  0.125000000000000,  0.625000000000000,  0.125000000000000 ]
    mass: 35.453000
    reduced_to: 65
  - symbol: Cl # 74
    coordinates: [  0.375000000000000,  0.625000000000000,  0.125000000000000 ]
    mass: 35.453000
    reduced_to: 65
  - symbol: Cl # 75
    coordinates: [  0.625000000000000,  0.625000000000000,  0.125000000000000 ]
    mass: 35.453000
    reduced_to: 65
  - symbol: Cl # 76
    coordinates: [  0.875000000000000,  0.625000000000000,  0.125000000000000 ]
    mass: 35.453000
    reduced_to: 65
  - symbol: Cl # 77
    coordinates: [  0.125000000000000,  0.875000000000000,  0.125000000000000 ]
    mass: 35.453000
    reduced_to: 65
  - symbol: Cl # 78
    coordinates: [  0.375000000000000,  0.875000000000000,  0.125000000000000 ]
    mass: 35.453000
    reduced_to: 65
  - symbol: Cl # 79
    coordinates: [  0.625000000000000,  0.875000000000000,  0.125000000000000 ]
    mass: 35.453000
    reduced_to: 65
  - symbol: Cl # 80
    coordinates: [  0.875000000000000,  0.875000000000000,  0.125000000000000 ]
    mass: 35.453000
    reduced_to: 65
  - symbol: Cl # 81
    coordinates: [  0.125000000000000,  0.125000000000000,  0.375000000000000 ]
    mass: 35.453000
    reduced_to: 65
  - symbol: Cl # 82
    coordinates: [  0.375000000000000,  0.125000000000000,  0.375000000000000 ]
    mass: 35.453000
    reduced_to: 65
  - symbol: Cl # 83
    coordinates: [  0.625000000000000,  0.125000000000000,  0.375000000000000 ]
    mass: 35.453000
    reduced_to: 65
  - symbol: Cl # 84
    coordinates: [  0.875000000000000,  0.125000000000000,  0.375000000000000 ]
    mass: 35.453000
    reduced_to: 65
  - symbol: Cl # 85
    coordinates: [  0.125000000000000,  0.375000000000000,  0.375000000000000 ]
    mass: 35.453000
    reduced_to: 65
  - symbol: Cl # 86
    coordinates: [  0.375000000000000,  0.375000000000000,  0.375000000000000 ]
    mass: 35.453000
    reduced_to: 65
  - symbol: Cl # 87
    coordinates: [  0.625000000000000,  0.375000000000000,  0.375000000000000 ]
    mass: 35.453000
    reduced_to: 65
  - symbol: Cl # 88
    coordinates: [  0.875000000000000,  0.375000000000000,  0.375000000000000 ]
    mass: 35.453000
    reduced_to: 65
  - symbol: Cl # 89
    coordinates: [  0.125000000000000,  0.625000000000000,  0.375000000000000 ]
    mass: 35.453000
    reduced_to: 65
  - symbol: Cl # 90
    coordinates: [  0.375000000000000,  0.625000000000000,  0.375000000000000 ]
    mass: 35.453000
    reduced_to: 65
  - symbol: Cl # 91
    coordinates: [  0.625000000000000,  0.625000000000000,  0.375000000000000 ]
    mass: 35.453000
    reduced_to: 65
  - symbol: Cl # 92
    coordinates: [  0.875000000000000,  0.625000000000000,  0.375000000000000 ]
    mass: 35.453000
    reduced_to: 65
  - symbol: Cl # 93
    coordinates: [  0.125000000000000,  0.875000000000000,  0.375000000000000 ]
    mass: 35.453000
    reduced_to: 65
  - symbol: Cl # 94
    coordinates: [  0.375000000000000,  0.875000000000000,  0.375000000000000 ]
    mass: 35.453000
    reduced_to: 65
  - symbol: Cl # 95
    coordinates: [  0.625000000000000,  0.875000000000000,  0.375000000000000 ]
    mass: 35.453000
    reduced_to: 65
  - symbol: Cl # 96
    coordinates: [  0.875000000000000,  0.875000000000000,  0.375000000000000 ]
    mass: 35.453000
    reduced_to: 65
  - symbol: Cl # 97
    coordinates: [  0.125000000000000,  0.125000000000000,  0.625000000000000 ]
    mass: 35.453000
    reduced_to: 65
  - symbol: Cl # 98
    coordinates: [  0.375000000000000,  0.125000000000000,  0.625000000000000 ]
    mass: 35.453000
    reduced_to: 65
  - symbol: Cl # 99
    coordinates: [  0.625000000000000,  0.125000000000000,  0.625000000000000 ]
    mass: 35.453000
    reduced_to: 65
  - symbol: Cl # 100
    coordinates: [  0.875000000000000,  0.125000000000000,  0.625000000000000 ]
    mass: 35.453000
    reduced_to: 65
  - symbol: Cl # 101
    coordinates: [  0.125000000000000,  0.375000000000000,  0.625000000000000 ]
    mass: 35.453000
    reduced_to: 65
  - symbol: Cl # 102
    coordinates: [  0.375000000000000,  0.375000000000000,  0.625000000000000 ]
    mass: 35.453000
    reduced_to: 65
  - symbol: Cl # 103
    coordinates: [  0.625000000000000,  0.375000000000000,  0.625000000000000 ]
    mass: 35.453000
    reduced_to: 65
  - symbol: Cl # 104
    coordinates: [  0.875000000000000,  0.375000000000000,  0.625000000000000 ]
    mass: 35.453000
    reduced_to: 65
  - symbol: Cl # 105
    coordinates: [  0.125000000000000,  0.625000000000000,  0.625000000000000 ]
    mass: 35.453000
    reduced_to: 65
  - symbol: Cl # 106
    coordinates: [  0.375000000000000,  0.625000000000000,  0.625000000000000 ]
    mass: 35.453000
    reduced_to: 65
  - symbol: Cl # 107
    coordinates: [  0.625000000000000,  0.625000000000000,  0.625000000000000 ]
    mass: 35.453000
    reduced_to: 65
  - symbol: Cl # 108
    coordinates: [  0.875000000000000,  0.625000000000000,  0.625000000000000 ]
    mass: 35.453000
    reduced_to: 65
  - symbol: Cl # 109
    coordinates: [  0.125000000000000,  0.875000000000000,  0.625000000000000 ]
    mass: 35.453000
    reduced_to: 65
  - symbol: Cl # 110
    coordinates: [  0.375000000000000,  0.875000000000000,  0.625000000000000 ]
    mass: 35.453000
    reduced_to: 65
  - symbol: Cl # 111
    coordinates: [  0.625000000000000,  0.875000000000000,  0.625000000000000 ]
    mass: 35.453000
    reduced_to: 65
  - symbol: Cl # 112
    coordinates: [  0.875000000000000,  0.875000000000000,  0.625000000000000 ]
    mass: 35.453000
    reduced_to: 65
  - symbol: Cl # 113
    coordinates: [  0.125000000000000,  0.125000000000000,  0.875000000000000 ]
    mass: 35.453000
    reduced_to: 65
  - symbol: Cl # 114
    coordinates: [  0.375000000000000,  0.125000000000000,  0.875000000000000 ]
    mass: 35.453000
    reduced_to: 65
  - symbol: Cl # 115
    coordinates: [  0.625000000000000,  0.125000000000000,  0.875000000000000 ]
    mass: 35.453000
    reduced_to: 65
  - symbol: Cl # 116
    coordinates: [  0.875000000000000,  0.125000000000000,  0.875000000000000 ]
    mass: 35.453000
    reduced_to: 65
  - symbol: Cl # 117
    coordinates: [  0.125000000000000,  0.375000000000000,  0.875000000000000 ]
    mass: 35.453000
    reduced_to: 65
  - symbol: Cl # 118
    coordinates: [  0.375000000000000,  0.375000000000000,  0.875000000000000 ]
    mass: 35.453000
    reduced_to: 65
  - symbol: Cl # 119
    coordinates: [  0.625000000000000,  0.375000000000000,  0.875000000000000 ]
    mass: 35.453000
    reduced_to: 65
  - symbol: Cl # 120
    coordinates: [  0.875000000000000,  0.375000000000000,  0.875000000000000 ]
    mass: 35.453000
    reduced_to: 65
  - symbol: Cl # 121
    coordinates: [  0.125000000000000,  0.625000000000000,  0.875000000000000 ]
    mass: 35.453000
    reduced_to: 65
  - symbol: Cl # 122
    coordinates: [  0.375000000000000,  0.625000000000000,  0.875000000000000 ]
    mass: 35.453000
    reduced_to: 65
  - symbol: Cl # 123
    coordinates: [  0.625000000000000,  0.625000000000000,  0.875000000000000 ]
    mass: 35.453000
    reduced_to: 65
  - symbol: Cl # 124
    coordinates: [  0.875000000000000,  0.625000000000000,  0.875000000000000 ]
    mass: 35.453000
    reduced_to: 65
  - symbol: Cl # 125
    coordinates: [  0.125000000000000,  0.875000000000000,  0.875000000000000 ]
    mass: 35.453000
    reduced_to: 65
  - symbol: Cl # 126
    coordinates: [  0.375000000000000,  0.875000000000000,  0.875000000000000 ]
    mass: 35.453000
    reduced_to: 65
  - symbol: Cl # 127
    coordinates: [  0.625000000000000,  0.875000000000000,  0.875000000000000 ]
    mass: 35.453000
    reduced_to: 65
  - symbol: Cl # 128
    coordinates: [  0.875000000000000,  0.875000000000000,  0.875000000000000 ]
    mass: 35.453000
    reduced_to: 65

force_constants:
  format: "full"
  shape: [ 128, 128 ]
  elements:
  - # (1, 1)
    - [     1.516135934524120,    -0.000000000000000,     0.000000000000000 ]
    - [    -0.000000000000000,     1.516135934524120,     0.000000000000000 ]
    - [     0.000000000000000,     0.000000000000000,     1.516135934524120 ]
  - # (1, 2)
    - [    -0.416316424006858,     0.000000000000000,     0.000000000000000 ]
    - [     0.000000000000000,     0.145682950493559,     0.000000000000000 ]
    - [     0.000000000000000,     0.000000000000000,     0.145682950493559 ]
  - # (1, 3)
    - [    -0.071441632871198,     0.000000000000000,     0.000000000000000 ]
    - [     0.000000000000000,     0.022422452825260,     0.000000000000000 ]
    - [     0.000000000000000,     0.000000000000000,     0.022422452825260 ]
  - # (1, 4)
    - [    -0.416316424006858,     0.000000000000000,     0.000000000000000 ]
    - [     0.000000000000000,     0.145682950493559,     0.000000000000000 ]
    - [     0.000000000000000,    -0.000000000000000,     0.145682950493559 ]
  - # (1, 5)
    - [     0.145682950493559,     0.000000000000000,     0.000000000000000 ]
    - [     0.000000000000000,    -0.416316424006858,     0.000000000000000 ]
    - [     0.000000000000000,     0.000000000000000,     0.145682950493559 ]
  - # (1, 6)
    - [    -0.035325299229322,    -0.056768435083419,     0.000000000000000 ]
    - [    -0.056768435083419,    -0.035325299229322,     0.000000000000000 ]
    - [     0.000000000000000,     0.000000000000000,     0.055832929971165 ]
  - # (1, 7)
    - [    -0.033022013601237,     0.000000000000000,     0.000000000000000 ]
    - [     0.000000000000000,    -0.002108500323551,     0.000000000000000 ]
    - [     0.000000000000000,     0.000000000000000,     0.015790602329955 ]
  - # (1, 8)
    - [    -0.035325299229322,     0.056768435083419,     0.000000000000000 ]
    - [     0.056768435083419,    -0.035325299229322,     0.000000000000000 ]
    - [     0.000000000000000,     0.000000000000000,     0.055832929971165 ]
  - # (1, 9)
    - [     0.022422452825260,     0.000000000000000,     0.000000000000000 ]
    - [     0.000000000000000,    -0.071441632871198,     0.000000000000000 ]
    - [     0.000000000000000,     0.000000000000000,     0.022422452825260 ]
  - # (1, 10)
    - [    -0.002108500323551,     0.000000000000000,     0.000000000000000 ]
    - [     0.000000000000000,    -0.033022013601237,     0.000000000000000 ]
    - [     0.000000000000000,     0.000000000000000,     0.015790602329955 ]
  - # (1, 11)
    - [    -0.017566912028518,     0.000000000000000,     0.000000000000000 ]
    - [     0.000000000000000,    -0.017566912028518,     0.000000000000000 ]
    - [     0.000000000000000,     0.000000000000000,     0.006217344670060 ]
  - # (1, 12)
    - [    -0.002108500323551,     0.000000000000000,     0.000000000000000 ]
    - [     0.000000000000000,    -0.033022013601237,     0.000000000000000 ]
    - [     0.000000000000000,     0.000000000000000,     0.015790602329955 ]
  - # (1, 13)
    - [     0.145682950493559,     0.000000000000000,     0.000000000000000 ]
    - [     0.000000000000000,    -0.416316424006858,     0.000000000000000 ]
    - [     0.000000000000000,     0.000000000000000,     0.145682950493559 ]
  - # (1, 14)
    - [    -0.035325299229322,     0.056768435083419,     0.000000000000000 ]
    - [     0.056768435083419,    -0.035325299229322,     0.000000000000000 ]
    - [     0.000000000000000,    -0.000000000000000,     0.055832929971165 ]
  - # (1, 15)
    - [    -0.033022013601237,     0.000000000000000,     0.000000000000000 ]
    - [     0.000000000000000,    -0.002108500323551,     0.000000000000000 ]
    - [     0.000000000000000,     0.000000000000000,     0.015790602329955 ]
  - # (1, 16)
    - [    -0.035325299229322,    -0.056768435083419,     0.000000000000000 ]
    - [    -0.056768435083419,    -0.035325299229322,     0.000000000000000 ]
    - [     0.000000000000000,     0.000000000000000,     0.055832929971165 ]
  - # (1, 17)
    - [     0.145682950493559,     0.000000000000000,     0.000000000000000 ]
    - [     0.000000000000000,     0.145682950493559,     0.000000000000000 ]
    - [     0.000000000000000,     0.000000000000000,    -0.416316424006858 ]
  - # (1, 18)
    - [    -0.035325299229322,     0.000000000000000,    -0.056768435083419 ]
    - [     0.000000000000000,     0.055832929971165,     0.000000000000000 ]
    - [    -0.056768435083419,     0.000000000000000,    -0.035325299229322 ]
  - # (1, 19)
    - [    -0.033022013601237,     0.000000000000000,     0.000000000000000 ]
    - [     0.000000000000000,     0.015790602329955,     0.000000000000000 ]
    - [     0.000000000000000,     0.000000000000000,    -0.002108500323551 ]
  - # (1, 20)
    - [    -0.035325299229322,     0.000000000000000,     0.056768435083419 ]
    - [     0.000000000000000,     0.055832929971165,     0.000000000000000 ]
    - [     0.056768435083419,    -0.000000000000000,    -0.035325299229322 ]
  - # (1, 21)
    - [     0.055832929971165,     0.000000000000000,     0.000000000000000 ]
    - [     0.000000000000000,    -0.035325299229322,    -0.056768435083419 ]
    - [     0.000000000000000,    -0.056768435083419,    -0.035325299229322 ]
  - # (1, 22)
    - [    -0.015842286635521,    -0.024650990687161,    -0.024650990687161 ]
    - [    -0.024650990687161,    -0.015842286635521,    -0.024650990687161 ]
    - [    -0.024650990687161,    -0.024650990687161,    -0.015842286635521 ]
  - # (1, 23)
    - [    -0.023621082687244,     0.000000000000000,     0.000000000000000 ]
    - [     0.000000000000000,    -0.000265072829380,    -0.004142372704591 ]
    - [     0.000000000000000,    -0.004142372704591,    -0.000265072829380 ]
  - # (1, 24)
    - [    -0.015842286635521,     0.024650990687161,     0.024650990687161 ]
    - [     0.024650990687161,    -0.015842286635521,    -0.024650990687161 ]
    - [     0.024650990687161,    -0.024650990687161,    -0.015842286635521 ]
  - # (1, 25)
    - [     0.015790602329955,     0.000000000000000,     0.000000000000000 ]
    - [     0.000000000000000,    -0.033022013601237,     0.000000000000000 ]
    - [     0.000000000000000,     0.000000000000000,    -0.002108500323551 ]
  - # (1, 26)
    - [    -0.000265072829380,     0.000000000000000,    -0.004142372704591 ]
    - [     0.000000000000000,    -0.023621082687244,     0.000000000000000 ]
    - [    -0.004142372704591,     0.000000000000000,    -0.000265072829380 ]
  - # (1, 27)
    - [    -0.015347808049873,     0.000000000000000,     0.000000000000000 ]
    - [     0.000000000000000,    -0.015347808049873,     0.000000000000000 ]
    - [     0.000000000000000,     0.000000000000000,     0.002044507585685 ]
  - # (1, 28)
    - [    -0.000265072829380,     0.000000000000000,     0.004142372704591 ]
    - [     0.000000000000000,    -0.023621082687244,     0.000000000000000 ]
    - [     0.004142372704591,     0.000000000000000,    -0.000265072829380 ]
  - # (1, 29)
    - [     0.055832929971165,     0.000000000000000,     0.000000000000000 ]
    - [     0.000000000000000,    -0.035325299229322,     0.056768435083419 ]
    - [     0.000000000000000,     0.056768435083419,    -0.035325299229322 ]
  - # (1, 30)
    - [    -0.015842286635521,     0.024650990687161,    -0.024650990687161 ]
    - [     0.024650990687161,    -0.015842286635521,     0.024650990687161 ]
    - [    -0.024650990687161,     0.024650990687161,    -0.015842286635521 ]
  - # (1, 31)
    - [    -0.023621082687244,     0.000000000000000,     0.000000000000000 ]
    - [     0.000000000000000,    -0.000265072829380,     0.004142372704591 ]
    - [     0.000000000000000,     0.004142372704591,    -0.000265072829380 ]
  - # (1, 32)
    - [    -0.015842286635521,    -0.024650990687161,     0.024650990687161 ]
    - [    -0.024650990687161,    -0.015842286635521,     0.024650990687161 ]
    - [     0.024650990687161,     0.024650990687161,    -0.015842286635521 ]
  - # (1, 33)
    - [     0.022422452825260,     0.000000000000000,     0.000000000000000 ]
    - [     0.000000000000000,     0.022422452825260,     0.000000000000000 ]
    - [     0.000000000000000,     0.000000000000000,    -0.071441632871198 ]
  - # (1, 34)
    - [    -0.002108500323551,     0.000000000000000,     0.000000000000000 ]
    - [     0.000000000000000,     0.015790602329955,     0.000000000000000 ]
    - [     0.000000000000000,     0.000000000000000,    -0.033022013601237 ]
  - # (1, 35)
    - [    -0.017566912028518,     0.000000000000000,     0.000000000000000 ]
    - [     0.000000000000000,     0.006217344670060,     0.000000000000000 ]
    - [     0.000000000000000,     0.000000000000000,    -0.017566912028518 ]
  - # (1, 36)
    - [    -0.002108500323551,     0.000000000000000,     0.000000000000000 ]
    - [     0.000000000000000,     0.015790602329955,     0.000000000000000 ]
    - [     0.000000000000000,    -0.000000000000000,    -0.033022013601237 ]
  - # (1, 37)
    - [     0.015790602329955,     0.000000000000000,     0.000000000000000 ]
    - [     0.000000000000000,    -0.002108500323551,     0.000000000000000 ]
    - [     0.000000000000000,     0.000000000000000,    -0.033022013601237 ]
  - # (1, 38)
    - [    -0.000265072829380,    -0.004142372704591,     0.000000000000000 ]
    - [    -0.004142372704591,    -0.000265072829380,     0.000000000000000 ]
    - [     0.000000000000000,     0.000000000000000,    -0.023621082687244 ]
  - # (1, 39)
    - [    -0.015347808049873,     0.000000000000000,     0.000000000000000 ]
    - [     0.000000000000000,     0.002044507585685,     0.000000000000000 ]
    - [     0.000000000000000,     0.000000000000000,    -0.015347808049873 ]
  - # (1, 40)
    - [    -0.000265072829380,     0.004142372704591,     0.000000000000000 ]
    - [     0.004142372704591,    -0.000265072829380,     0.000000000000000 ]
    - [     0.000000000000000,     0.000000000000000,    -0.023621082687244 ]
  - # (1, 41)
    - [     0.006217344670060,     0.000000000000000,     0.000000000000000 ]