<?xml version="1.0" encoding="ISO-8859-1"?>
<modeling>
 <generator>
  <i name="program" type="string">vasp </i>
  <i name="version" type="string">6.4.3  </i>
  <i name="subversion" type="string">19Mar24 (build Jun 20 2024 15:56:09) complex                          parallel </i>
  <i name="platform" type="string">LinuxNV_CrayMPICH </i>
  <i name="date" type="string">2025 01 07 </i>
  <i name="time" type="string">18:41:53 </i>
 </generator>
 <incar>
  <i type="string" name="PREC">Accurate</i>
  <i type="int" name="IBRION">    -1</i>
  <i name="EDIFF">      0.00000001</i>
  <i type="int" name="NSW">     0</i>
  <i name="ENCUT">    500.00000000</i>
  <i type="logical" name="LREAL"> F  </i>
  <i type="int" name="ISMEAR">     0</i>
  <i name="SIGMA">      0.01000000</i>
  <i type="logical" name="LWAVE"> F  </i>
  <i type="logical" name="LCHARG"> F  </i>
 </incar>
 <primitive_cell>
  <structure name="primitive_cell" >
   <crystal>
    <varray name="basis" >
     <v>       4.14369834       4.14369834       0.00000000 </v>
     <v>       4.14369834      -4.14369834       0.00000000 </v>
     <v>       0.00000000       4.14369834      -8.28739668 </v>
    </varray>
    <i name="volume">    284.59311253 </i>
    <varray name="rec_basis" >
     <v>       0.12066515       0.12066515       0.06033258 </v>
     <v>       0.12066515      -0.12066515      -0.06033258 </v>
     <v>       0.00000000       0.00000000      -0.12066515 </v>
    </varray>
   </crystal>
   <varray name="positions" >
    <v>       0.00000000       0.00000000       0.00000000 </v>
    <v>       0.50000000       0.50000000       0.00000000 </v>
    <v>       0.25000000       0.75000000       0.50000000 </v>
    <v>       0.75000000       0.25000000       0.50000000 </v>
    <v>       0.62500000       0.87500000       0.75107926 </v>
    <v>       0.12500000       0.37500000       0.75000000 </v>
    <v>       0.87500000       0.62500000       0.25000000 </v>
    <v>       0.37500000       0.12500000       0.25000000 </v>
   </varray>
  </structure>
  <varray name="primitive_index" >
   <v type="int" >        1 </v>
   <v type="int" >        2 </v>
   <v type="int" >        3 </v>
   <v type="int" >        4 </v>
   <v type="int" >        5 </v>
   <v type="int" >        6 </v>
   <v type="int" >        7 </v>
   <v type="int" >        8 </v>
  </varray>
 </primitive_cell>
 <kpoints>
  <generation param="Gamma">
   <v type="int" name="divisions">       8        8        5 </v>
   <v name="usershift">      0.00000000       0.00000000       0.00000000 </v>
   <v name="genvec1">      0.12500000      -0.00000000      -0.00000000 </v>
   <v name="genvec2">     -0.00000000       0.12500000       0.00000000 </v>
   <v name="genvec3">      0.00000000       0.00000000       0.20000000 </v>
   <v name="shift">      0.00000000       0.00000000       0.00000000 </v>
  </generation>
  <varray name="kpointlist" >
   <v>       0.00000000       0.00000000       0.00000000 </v>
   <v>       0.12500000       0.00000000       0.00000000 </v>
   <v>       0.25000000       0.00000000       0.00000000 </v>
   <v>       0.37500000       0.00000000       0.00000000 </v>
   <v>       0.50000000       0.00000000       0.00000000 </v>
   <v>       0.12500000       0.12500000       0.00000000 </v>
   <v>       0.25000000       0.12500000       0.00000000 </v>
   <v>       0.37500000       0.12500000       0.00000000 </v>
   <v>       0.50000000       0.12500000       0.00000000 </v>
   <v>      -0.37500000       0.12500000       0.00000000 </v>
   <v>      -0.25000000       0.12500000       0.00000000 </v>
   <v>      -0.12500000       0.12500000       0.00000000 </v>
   <v>       0.25000000       0.25000000       0.00000000 </v>
   <v>       0.37500000       0.25000000       0.00000000 </v>
   <v>       0.50000000       0.25000000       0.00000000 </v>
   <v>      -0.37500000       0.25000000       0.00000000 </v>
   <v>      -0.25000000       0.25000000       0.00000000 </v>
   <v>       0.37500000       0.37500000       0.00000000 </v>
   <v>       0.50000000       0.37500000       0.00000000 </v>
   <v>      -0.37500000       0.37500000       0.00000000 </v>
   <v>       0.50000000       0.50000000       0.00000000 </v>
   <v>       0.00000000       0.00000000       0.20000000 </v>
   <v>       0.12500000       0.00000000       0.20000000 </v>
   <v>       0.25000000       0.00000000       0.20000000 </v>
   <v>       0.37500000       0.00000000       0.20000000 </v>
   <v>       0.50000000       0.00000000       0.20000000 </v>
   <v>      -0.37500000       0.00000000       0.20000000 </v>
   <v>      -0.25000000       0.00000000       0.20000000 </v>
   <v>      -0.12500000       0.00000000       0.20000000 </v>
   <v>       0.12500000       0.12500000       0.20000000 </v>
   <v>       0.25000000       0.12500000       0.20000000 </v>
   <v>       0.37500000       0.12500000       0.20000000 </v>
   <v>       0.50000000       0.12500000       0.20000000 </v>
   <v>      -0.37500000       0.12500000       0.20000000 </v>
   <v>      -0.25000000       0.12500000       0.20000000 </v>
   <v>      -0.12500000       0.12500000       0.20000000 </v>
   <v>       0.12500000       0.25000000       0.20000000 </v>
   <v>       0.25000000       0.25000000       0.20000000 </v>
   <v>       0.37500000       0.25000000       0.20000000 </v>
   <v>       0.50000000       0.25000000       0.20000000 </v>
   <v>      -0.37500000       0.25000000       0.20000000 </v>
   <v>      -0.25000000       0.25000000       0.20000000 </v>
   <v>       0.12500000       0.37500000       0.20000000 </v>
   <v>       0.25000000       0.37500000       0.20000000 </v>
   <v>       0.37500000       0.37500000       0.20000000 </v>
   <v>       0.50000000       0.37500000       0.20000000 </v>
   <v>      -0.37500000       0.37500000       0.20000000 </v>
   <v>       0.12500000       0.50000000       0.20000000 </v>
   <v>       0.25000000       0.50000000       0.20000000 </v>
   <v>       0.37500000       0.50000000       0.20000000 </v>
   <v>       0.50000000       0.50000000       0.20000000 </v>
   <v>       0.12500000      -0.37500000       0.20000000 </v>
   <v>       0.25000000      -0.37500000       0.20000000 </v>
   <v>       0.37500000      -0.37500000       0.20000000 </v>
   <v>       0.12500000      -0.25000000       0.20000000 </v>
   <v>       0.25000000      -0.25000000       0.20000000 </v>
   <v>       0.12500000      -0.12500000       0.20000000 </v>
   <v>       0.00000000       0.00000000       0.40000000 </v>
   <v>       0.12500000       0.00000000       0.40000000 </v>
   <v>       0.25000000       0.00000000       0.40000000 </v>
   <v>       0.37500000       0.00000000       0.40000000 </v>
   <v>       0.50000000       0.00000000       0.40000000 </v>
   <v>      -0.37500000       0.00000000       0.40000000 </v>
   <v>      -0.25000000       0.00000000       0.40000000 </v>
   <v>      -0.12500000       0.00000000       0.40000000 </v>
   <v>       0.12500000       0.12500000       0.40000000 </v>
   <v>       0.25000000       0.12500000       0.40000000 </v>
   <v>       0.37500000       0.12500000       0.40000000 </v>
   <v>       0.50000000       0.12500000       0.40000000 </v>
   <v>      -0.37500000       0.12500000       0.40000000 </v>
   <v>      -0.25000000       0.12500000       0.40000000 </v>
   <v>      -0.12500000       0.12500000       0.40000000 </v>
   <v>       0.12500000       0.25000000       0.40000000 </v>
   <v>       0.25000000       0.25000000       0.40000000 </v>
   <v>       0.37500000       0.25000000       0.40000000 </v>
   <v>       0.50000000       0.25000000       0.40000000 </v>
   <v>      -0.37500000       0.25000000       0.40000000 </v>
   <v>      -0.25000000       0.25000000       0.40000000 </v>
   <v>       0.12500000       0.37500000       0.40000000 </v>
   <v>       0.25000000       0.37500000       0.40000000 </v>
   <v>       0.37500000       0.37500000       0.40000000 </v>
   <v>       0.50000000       0.37500000       0.40000000 </v>
   <v>      -0.37500000       0.37500000       0.40000000 </v>
   <v>       0.12500000       0.50000000       0.40000000 </v>
   <v>       0.25000000       0.50000000       0.40000000 </v>
   <v>       0.37500000       0.50000000       0.40000000 </v>
   <v>       0.50000000       0.50000000       0.40000000 </v>
   <v>       0.12500000      -0.37500000       0.40000000 </v>
   <v>       0.25000000      -0.37500000       0.40000000 </v>
   <v>       0.37500000      -0.37500000       0.40000000 </v>
   <v>       0.12500000      -0.25000000       0.40000000 </v>
   <v>       0.25000000      -0.25000000       0.40000000 </v>
   <v>       0.12500000      -0.12500000       0.40000000 </v>
  </varray>
  <varray name="weights" >
   <v>       0.00312500 </v>
   <v>       0.01250000 </v>
   <v>       0.01250000 </v>
   <v>       0.01250000 </v>
   <v>       0.00625000 </v>
   <v>       0.00625000 </v>
   <v>       0.01250000 </v>
   <v>       0.01250000 </v>
   <v>       0.01250000 </v>
   <v>       0.01250000 </v>
   <v>       0.01250000 </v>
   <v>       0.00625000 </v>
   <v>       0.00625000 </v>
   <v>       0.01250000 </v>
   <v>       0.01250000 </v>
   <v>       0.01250000 </v>
   <v>       0.00625000 </v>
   <v>       0.00625000 </v>
   <v>       0.01250000 </v>
   <v>       0.00625000 </v>
   <v>       0.00312500 </v>
   <v>       0.00625000 </v>
   <v>       0.01250000 </v>
   <v>       0.01250000 </v>
   <v>       0.01250000 </v>
   <v>       0.01250000 </v>
   <v>       0.01250000 </v>
   <v>       0.01250000 </v>
   <v>       0.01250000 </v>
   <v>       0.01250000 </v>
   <v>       0.01250000 </v>
   <v>       0.01250000 </v>
   <v>       0.01250000 </v>
   <v>       0.01250000 </v>
   <v>       0.01250000 </v>
   <v>       0.00625000 </v>
   <v>       0.01250000 </v>
   <v>       0.01250000 </v>
   <v>       0.01250000 </v>
   <v>       0.01250000 </v>
   <v>       0.01250000 </v>
   <v>       0.00625000 </v>
   <v>       0.01250000 </v>
   <v>       0.01250000 </v>
   <v>       0.01250000 </v>
   <v>       0.01250000 </v>
   <v>       0.00625000 </v>
   <v>       0.01250000 </v>
   <v>       0.01250000 </v>
   <v>       0.01250000 </v>
   <v>       0.00625000 </v>
   <v>       0.01250000 </v>
   <v>       0.01250000 </v>
   <v>       0.00625000 </v>
   <v>       0.01250000 </v>
   <v>       0.00625000 </v>
   <v>       0.00625000 </v>
   <v>       0.00625000 </v>
   <v>       0.01250000 </v>
   <v>       0.01250000 </v>
   <v>       0.01250000 </v>
   <v>       0.01250000 </v>
   <v>       0.01250000 </v>
   <v>       0.01250000 </v>
   <v>       0.01250000 </v>
   <v>       0.01250000 </v>
   <v>       0.01250000 </v>
   <v>       0.01250000 </v>
   <v>       0.01250000 </v>
   <v>       0.01250000 </v>
   <v>       0.01250000 </v>
   <v>       0.00625000 </v>
   <v>       0.01250000 </v>
   <v>       0.01250000 </v>
   <v>       0.01250000 </v>
   <v>       0.01250000 </v>
   <v>       0.01250000 </v>
   <v>       0.00625000 </v>
   <v>       0.01250000 </v>
   <v>       0.01250000 </v>
   <v>       0.01250000 </v>
   <v>       0.01250000 </v>
   <v>       0.00625000 </v>
   <v>       0.01250000 </v>
   <v>       0.01250000 </v>
   <v>       0.01250000 </v>
   <v>       0.00625000 </v>
   <v>       0.01250000 </v>
   <v>       0.01250000 </v>
   <v>       0.00625000 </v>
   <v>       0.01250000 </v>
   <v>       0.00625000 </v>
   <v>       0.00625000 </v>
  </varray>
 </kpoints>
 <parameters>
  <separator name="general" >
   <i type="string" name="SYSTEM">unknown system</i>
   <i type="logical" name="LCOMPAT"> F  </i>
  </separator>
  <separator name="electronic" >
   <i type="string" name="PREC">accura</i>
   <i name="ENMAX">    500.00000000</i>
   <i name="ENAUG">    407.93300000</i>
   <i name="EDIFF">      0.00000001</i>
   <i type="int" name="IALGO">    38</i>
   <i type="int" name="IWAVPR">    10</i>
   <i type="int" name="NBANDS">    40</i>
   <i type="int" name="NBANDSLOW">    -1</i>
   <i type="int" name="NBANDSHIGH">    -1</i>
   <i name="NELECT">     64.00000000</i>
   <i type="int" name="TURBO">     0</i>
   <i type="int" name="IRESTART">     0</i>
   <i type="int" name="NREBOOT">     0</i>
   <i type="int" name="NMIN">     0</i>
   <i name="EREF">      0.00000000</i>
   <separator name="electronic smearing" >
    <i type="int" name="ISMEAR">     0</i>
    <i name="SIGMA">      0.01000000</i>
    <i name="KSPACING">      0.50000000</i>
    <i type="logical" name="KGAMMA"> T  </i>
    <i type="logical" name="KBLOWUP"> F  </i>
   </separator>
   <separator name="electronic projectors" >
    <i type="logical" name="LREAL"> F  </i>
    <v name="ROPT">      0.00000000      0.00000000</v>
    <i type="int" name="LMAXPAW">  -100</i>
    <i type="int" name="LMAXMIX">     2</i>
    <i type="logical" name="NLSPLINE"> F  </i>
   </separator>
   <separator name="electronic startup" >
    <i type="int" name="ISTART">     0</i>
    <i type="int" name="ICHARG">     2</i>
    <i type="int" name="INIWAV">     1</i>
   </separator>
   <separator name="electronic spin" >
    <i type="int" name="ISPIN">     1</i>
    <i type="logical" name="LNONCOLLINEAR"> F  </i>
    <v name="MAGMOM">      1.00000000      1.00000000      1.00000000      1.00000000      1.00000000      1.00000000      1.00000000      1.00000000</v>
    <i name="NUPDOWN">     -1.00000000</i>
    <i type="logical" name="LSORBIT"> F  </i>
    <v name="SAXIS">      0.00000000      0.00000000      1.00000000</v>
    <i type="logical" name="LSPIRAL"> F  </i>
    <v name="QSPIRAL">      0.00000000      0.00000000      0.00000000</v>
    <i type="logical" name="LZEROZ"> F  </i>
   </separator>
   <separator name="electronic exchange-correlation" >
    <i type="logical" name="LASPH"> F  </i>
   </separator>
   <separator name="electronic convergence" >
    <i type="int" name="NELM">    60</i>
    <i type="int" name="NELMDL">    -5</i>
    <i type="int" name="NELMIN">     2</i>
    <i name="ENINI">    500.00000000</i>
    <separator name="electronic convergence detail" >
     <i type="logical" name="LDIAG"> T  </i>
     <i type="logical" name="LSUBROT"> F  </i>
     <i name="WEIMIN">      0.00000000</i>
     <i name="EBREAK">      0.00000000</i>
     <i name="DEPER">      0.30000000</i>
     <i type="int" name="NRMM">     4</i>
     <i name="TIME">      0.40000000</i>
    </separator>
   </separator>
   <separator name="electronic mixer" >
    <i name="AMIX">      0.40000000</i>
    <i name="BMIX">      1.00000000</i>
    <i name="AMIN">      0.10000000</i>
    <i name="AMIX_MAG">      1.60000000</i>
    <i name="BMIX_MAG">      1.00000000</i>
    <separator name="electronic mixer details" >
     <i type="int" name="IMIX">     4</i>
     <i type="logical" name="MIXFIRST"> F  </i>
     <i type="int" name="MAXMIX">   -45</i>
     <i name="WC">    100.00000000</i>
     <i type="int" name="INIMIX">     1</i>
     <i type="int" name="MIXPRE">     1</i>
     <i type="int" name="MREMOVE">     5</i>
    </separator>
   </separator>
   <separator name="electronic dipolcorrection" >
    <i type="logical" name="LDIPOL"> F  </i>
    <i type="logical" name="LMONO"> F  </i>
    <i type="int" name="IDIPOL">     0</i>
    <i name="EPSILON">      1.00000000</i>
    <v name="DIPOL">   -100.00000000   -100.00000000   -100.00000000</v>
    <i name="EFIELD">      0.00000000</i>
    <i type="logical" name="LVACPOTAV"> F  </i>
   </separator>
  </separator>
  <separator name="grids" >
   <i type="int" name="NGX">    48</i>
   <i type="int" name="NGY">    48</i>
   <i type="int" name="NGZ">    70</i>
   <i type="int" name="NGXF">    96</i>
   <i type="int" name="NGYF">    96</i>
   <i type="int" name="NGZF">   140</i>
   <i type="logical" name="ADDGRID"> F  </i>
  </separator>
  <separator name="ionic" >
   <i type="int" name="NSW">     0</i>
   <i type="int" name="IBRION">    -1</i>
   <i type="int" name="MDALGO">     0</i>
   <i type="int" name="ISIF">     2</i>
   <i name="PSTRESS">      0.00000000</i>
   <i name="EDIFFG">      0.00000010</i>
   <i type="int" name="NFREE">     0</i>
   <i name="POTIM">      0.50000000</i>
   <i name="SMASS">     -3.00000000</i>
   <i name="SCALEE">      1.00000000</i>
  </separator>
  <separator name="ionic md" >
   <i name="TEBEG">      0.00010000</i>
   <i name="TEEND">      0.00010000</i>
   <i type="int" name="NBLOCK">     1</i>
   <i type="int" name="KBLOCK">     1</i>
   <i type="int" name="NPACO">   256</i>
   <i name="APACO">     10.00000000</i>
  </separator>
  <separator name="symmetry" >
   <i type="int" name="ISYM">     2</i>
   <i name="SYMPREC">      0.00001000</i>
  </separator>
  <separator name="dos" >
   <i type="int" name="LORBIT">     0</i>
   <v name="RWIGS">     -1.00000000     -1.00000000</v>
   <i type="int" name="NEDOS">   301</i>
   <i name="EMIN">     10.00000000</i>
   <i name="EMAX">    -10.00000000</i>
   <i name="EFERMI">      0.00000000</i>
  </separator>
  <separator name="writing" >
   <i type="int" name="NWRITE">     2</i>
   <i type="logical" name="LWAVE"> F  </i>
   <i type="logical" name="LDOWNSAMPLE"> F  </i>
   <i type="logical" name="LCHARG"> F  </i>
   <i type="logical" name="LPARD"> F  </i>
   <i type="logical" name="LVTOT"> F  </i>
   <i type="logical" name="LVHAR"> F  </i>
   <i type="logical" name="LELF"> F  </i>
   <i type="logical" name="LOPTICS"> F  </i>
   <v name="STM">      0.00000000      0.00000000      0.00000000      0.00000000      0.00000000      0.00000000      0.00000000</v>
  </separator>
  <separator name="performance" >
   <i type="int" name="NPAR">     8</i>
   <i type="int" name="NSIM">     4</i>
   <i type="int" name="NBLK">    -1</i>
   <i type="logical" name="LPLANE"> T  </i>
   <i type="logical" name="LSCALAPACK"> T  </i>
   <i type="logical" name="LSCAAWARE"> F  </i>
   <i type="logical" name="LSCALU"> F  </i>
   <i type="logical" name="LASYNC"> F  </i>
   <i type="logical" name="LORBITALREAL"> F  </i>
  </separator>
  <separator name="miscellaneous" >
   <i type="int" name="IDIOT">     3</i>
   <i type="int" name="PHON_NSTRUCT">    -1</i>
   <i type="logical" name="LMUSIC"> F  </i>
   <v name="POMASS">    132.90000000     35.45300000</v>
   <v name="DARWINR">      0.00000000      0.00000000</v>
   <v name="DARWINV">      1.00000000      1.00000000</v>
   <i type="logical" name="LCORR"> T  </i>
  </separator>
  <i type="logical" name="GGA_COMPAT"> T  </i>
  <i type="logical" name="LBERRY"> F  </i>
  <i type="int" name="ICORELEVEL">     0</i>
  <i type="logical" name="LDAU"> F  </i>
  <i type="int" name="I_CONSTRAINED_M">     0</i>
  <separator name="electronic exchange-correlation" >
   <i type="string" name="GGA    ">PE</i>
   <i type="string" name="XC_C">1</i>
   <i type="int" name="VOSKOWN">     0</i>
   <i type="logical" name="LHFCALC"> F  </i>
   <i type="string" name="PRECFOCK"></i>
   <i type="logical" name="LSYMGRAD"> F  </i>
   <i type="logical" name="LHFONE"> F  </i>
   <i type="logical" name="LRHFCALC"> F  </i>
   <i type="logical" name="LTHOMAS"> F  </i>
   <i type="logical" name="LMODELHF"> F  </i>
   <i type="logical" name="LFOCKACE"> F  </i>
   <i name="ENCUT4O">     -1.00000000</i>
   <i type="int" name="EXXOEP">     0</i>
   <i type="int" name="FOURORBIT">     0</i>
   <i name="AEXX">      0.00000000</i>
   <i name="HFALPHA">      0.00000000</i>
   <i name="MCALPHA">      0.00000000</i>
   <i name="ALDAX">      1.00000000</i>
   <i name="AGGAX">      1.00000000</i>
   <i name="AMGGAX">      1.00000000</i>
   <i name="ALDAC">      1.00000000</i>
   <i name="AGGAC">      1.00000000</i>
   <i name="AMGGAC">      1.00000000</i>
   <i type="int" name="NKREDX">     1</i>
   <i type="int" name="NKREDY">     1</i>
   <i type="int" name="NKREDZ">     1</i>
   <i type="logical" name="SHIFTRED"> F  </i>
   <i type="logical" name="ODDONLY"> F  </i>
   <i type="logical" name="EVENONLY"> F  </i>
   <i type="int" name="LMAXFOCK">     0</i>
   <i type="int" name="NMAXFOCKAE">     0</i>
   <i type="logical" name="LFOCKAEDFT"> F  </i>
   <i name="HFSCREEN">      0.00000000</i>
   <i name="HFSCREENC">      0.00000000</i>
   <i type="int" name="NBANDSGWLOW">     0</i>
  </separator>
  <separator name="vdW DFT" >
   <i type="logical" name="LUSE_VDW"> F  </i>
   <i type="int" name="IVDW_NL">    -1</i>
   <i type="logical" name="LSPIN_VDW"> F  </i>
   <i name="ZAB_VDW">     -0.84910000</i>
   <i name="GAMMA_VDW">      1.39626340</i>
   <i name="ALPHA_VDW">      0.00000000</i>
   <i name="PARAM1">      0.12340000</i>
   <i name="PARAM2">      1.00000000</i>
   <i name="BPARAM">      6.30000000</i>
   <i name="CPARAM">      0.00930000</i>
  </separator>
  <separator name="model GW" >
   <i type="int" name="MODEL_GW">     0</i>
   <i name="MODEL_EPS0">     21.34448344</i>
   <i name="MODEL_ALPHA">      1.00000000</i>
  </separator>
  <separator name="linear response parameters" >
   <i type="logical" name="LEPSILON"> F  </i>
   <i type="logical" name="LRPA"> F  </i>
   <i type="logical" name="LNABLA"> F  </i>
   <i type="logical" name="LVEL"> F  </i>
   <i name="CSHIFT">      0.10000000</i>
   <i name="OMEGAMAX">     -1.00000000</i>
   <i name="DEG_THRESHOLD">      0.00200000</i>
   <i name="RTIME">     -0.10000000</i>
   <i name="WPLASMAI">      0.00000000</i>
   <v name="DFIELD">      0.00000000      0.00000000      0.00000000</v>
   <v name="WPLASMA">      0.00000000      0.00000000      0.00000000      0.00000000      0.00000000      0.00000000      0.00000000      0.00000000      0.00000000</v>
  </separator>
  <separator name="orbital magnetization" >
   <i type="logical" name="NUCIND"> F  </i>
   <v name="MAGPOS">      0.00000000      0.00000000      0.00000000</v>
   <i type="logical" name="LNICSALL"> T  </i>
   <i type="logical" name="ORBITALMAG"> F  </i>
   <i type="logical" name="LMAGBLOCH"> F  </i>
   <i type="logical" name="LCHIMAG"> F  </i>
   <i type="logical" name="LGAUGE"> T  </i>
   <i type="int" name="MAGATOM">     0</i>
   <v name="MAGDIPOL">      0.00000000      0.00000000      0.00000000</v>
   <v name="AVECCONST">      0.00000000      0.00000000      0.00000000</v>
  </separator>
  <separator name="response functions" >
   <i type="logical" name="LALL_IN_ONE"> F  </i>
   <i type="int" name="IALL_IN_ONE">    -1</i>
   <i type="int" name="NBANDS_WAVE">    -1</i>
   <i type="logical" name="LFINITE_TEMPERATURE"> F  </i>
   <i type="logical" name="LADDER"> F  </i>
   <i type="logical" name="LRPAFORCE"> F  </i>
   <i type="logical" name="LFXC"> F  </i>
   <i type="logical" name="LHARTREE"> T  </i>
   <i type="int" name="IBSE">     0</i>
   <v type="int" name="KPOINT">    -1     0     0     0</v>
   <i type="logical" name="LTCTC"> F  </i>
   <i type="logical" name="LTCTE"> F  </i>
   <i type="logical" name="LTETE"> F  </i>
   <i type="logical" name="LTRIPLET"> F  </i>
   <i type="logical" name="LFXCEPS"> F  </i>
   <i type="logical" name="LFXHEG"> F  </i>
   <i type="int" name="NATURALO">     2</i>
   <i type="logical" name="LHOLEGF"> F  </i>
   <i type="logical" name="L2ORDER"> F  </i>
   <i type="logical" name="LDMP1"> F  </i>
   <i type="logical" name="LMP2LT"> F  </i>
   <i type="logical" name="LSMP2LT"> F  </i>
   <i type="logical" name="LGWLF"> F  </i>
   <i name="ENCUTGW">     -1.60000002</i>
   <i name="ENCUTGWSOFT">     -1.60000002</i>
   <i name="ENCUTLF">     -1.00000000</i>
   <i type="logical" name="ESF_SPLINES"> F  </i>
   <i name="ESF_CONV">      0.01000000</i>
   <i type="int" name="ESF_NINTER">    15</i>
   <i type="int" name="LMAXMP2">    -1</i>
   <i name="SCISSOR">      0.00000000</i>
   <i type="int" name="NOMEGA">     0</i>
   <i type="int" name="NOMEGAR">     0</i>
   <i type="int" name="NBANDSGW">    -1</i>
   <i type="int" name="NBANDSO">    -1</i>
   <i type="int" name="NBANDSV">    -1</i>
   <i type="int" name="NELMGW">     1</i>
   <i type="int" name="NELMHF">     1</i>
   <i type="int" name="DIM">     3</i>
   <i type="int" name="IESPILON">     4</i>
   <i type="int" name="ANTIRES">     0</i>
   <i name="OMEGAMAX">    -30.00000000</i>
   <i name="OMEGAMIN">    -30.00000000</i>
   <i name="OMEGATL">   -200.00000000</i>
   <i type="int" name="OMEGAGRID">     0</i>
   <i name="CSHIFT">     -0.10000000</i>
   <i type="logical" name="LSELFENERGY"> F  </i>
   <i type="logical" name="LSPECTRAL"> F  </i>
   <i type="logical" name="LSPECTRALGW"> F  </i>
   <i type="logical" name="LSINGLES"> F  </i>
   <i type="logical" name="LFERMIGW"> F  </i>
   <i type="logical" name="ODDONLYGW"> F  </i>
   <i type="logical" name="EVENONLYGW"> F  </i>
   <i type="int" name="NKREDLFX">     1</i>
   <i type="int" name="NKREDLFY">     1</i>
   <i type="int" name="NKREDLFZ">     1</i>
   <i type="int" name="MAXMEM">  2800</i>
   <i type="int" name="TELESCOPE">     0</i>
   <i type="int" name="NTAUPAR">    -1</i>
   <i type="int" name="NOMEGAPAR">    -1</i>
   <i name="DAMP_NEWTON">      0.80000001</i>
   <i name="LAMBDA">      1.00000000</i>
  </separator>
  <separator name="External order field" >
   <i name="OFIELD_KAPPA">      0.00000000</i>
   <v name="OFIELD_K">      0.00000000      0.00000000      0.00000000</v>
   <i name="OFIELD_Q6_NEAR">      0.00000000</i>
   <i name="OFIELD_Q6_FAR">      0.00000000</i>
   <i name="OFIELD_A">      0.00000000</i>
  </separator>
  <separator name="optional k-points parameters" >
   <i type="int" name="KPOINTS_OPT_MODE">     1</i>
   <i type="logical" name="LKPOINTS_OPT"> F  </i>
  </separator>
 </parameters>
 <atominfo>
  <atoms>       8 </atoms>
  <types>       2 </types>
  <array name="atoms" >
   <dimension dim="1">ion</dimension>
   <field type="string">element</field>
   <field type="int">atomtype</field>
   <set>
    <rc><c>Cs</c><c>   1</c></rc>
    <rc><c>Cs</c><c>   1</c></rc>
    <rc><c>Cs</c><c>   1</c></rc>
    <rc><c>Cs</c><c>   1</c></rc>
    <rc><c>Cl</c><c>   2</c></rc>
    <rc><c>Cl</c><c>   2</c></rc>
    <rc><c>Cl</c><c>   2</c></rc>
    <rc><c>Cl</c><c>   2</c></rc>
   </set>
  </array>
  <array name="atomtypes" >
   <dimension dim="1">type</dimension>
   <field type="int">atomspertype</field>
   <field type="string">element</field>
   <field>mass</field>
   <field>valence</field>
   <field type="string">pseudopotential</field>
   <set>
    <rc><c>   4</c><c>Cs</c><c>    132.90000000</c><c>      9.00000000</c><c>  PAW_PBE Cs_sv 25Jan2019               </c></rc>
    <rc><c>   4</c><c>Cl</c><c>     35.45300000</c><c>      7.00000000</c><c>  PAW_PBE Cl 06Sep2000                  </c></rc>
   </set>
  </array>
 </atominfo>
 <structure name="initialpos" >
  <crystal>
   <varray name="basis" >
    <v>       4.14369834       4.14369834       0.00000000 </v>
    <v>       4.14369834      -4.14369834       0.00000000 </v>
    <v>       0.00000000       4.14369834      -8.28739668 </v>
   </varray>
   <i name="volume">    284.59311253 </i>
   <varray name="rec_basis" >
    <v>       0.12066515       0.12066515       0.06033258 </v>
    <v>       0.12066515      -0.12066515      -0.06033258 </v>
    <v>       0.00000000       0.00000000      -0.12066515 </v>
   </varray>
  </crystal>
  <varray name="positions" >
   <v>       0.00000000       0.00000000       0.00000000 </v>
   <v>       0.50000000       0.50000000       0.00000000 </v>
   <v>       0.25000000       0.75000000       0.50000000 </v>
   <v>       0.75000000       0.25000000       0.50000000 </v>
   <v>       0.62500000       0.87500000       0.75107926 </v>
   <v>       0.12500000       0.37500000       0.75000000 </v>
   <v>       0.87500000       0.62500000       0.25000000 </v>
   <v>       0.37500000       0.12500000       0.25000000 </v>
  </varray>
 </structure>
 <calculation>
  <scstep>
   <time name="dav">    1.22    1.23</time>
   <time name="total">    1.25    1.25</time>
   <energy>
    <i name="alphaZ">    214.16676563 </i>
    <i name="ewald">  -3265.84787668 </i>
    <i name="hartreedc">   -531.75768713 </i>
    <i name="XCdc">   -120.86789570 </i>
    <i name="pawpsdc">   3246.12869203 </i>
    <i name="pawaedc">  -2972.40719683 </i>
    <i name="eentropy">     -0.00018746 </i>
    <i name="bandstr">     37.77821111 </i>
    <i name="atom">   3861.61514281 </i>
    <i name="e_fr_energy">    468.80796779 </i>
    <i name="e_wo_entrp">    468.80815525 </i>
    <i name="e_0_energy">    468.80806152 </i>
   </energy>
  </scstep>
  <scstep>
   <time name="dav">    1.51    1.52</time>
   <time name="total">    1.51    1.52</time>
   <energy>
    <i name="e_fr_energy">     16.36250501 </i>
    <i name="e_wo_entrp">     16.36250501 </i>
    <i name="e_0_energy">     16.36250501 </i>
   </energy>
  </scstep>
  <scstep>
   <time name="dav">    1.39    1.39</time>
   <time name="total">    1.39    1.39</time>
   <energy>
    <i name="e_fr_energy">    -27.12291963 </i>
    <i name="e_wo_entrp">    -27.12291963 </i>
    <i name="e_0_energy">    -27.12291963 </i>
   </energy>
  </scstep>
  <scstep>
   <time name="dav">    1.37    1.38</time>
   <time name="total">    1.37    1.38</time>
   <energy>
    <i name="e_fr_energy">    -27.79895110 </i>
    <i name="e_wo_entrp">    -27.79895110 </i>
    <i name="e_0_energy">    -27.79895110 </i>
   </energy>
  </scstep>
  <scstep>
   <time name="dav">    1.32    1.32</time>
   <time name="total">    1.42    1.42</time>
   <energy>
    <i name="e_fr_energy">    -27.81212704 </i>
    <i name="e_wo_entrp">    -27.81212704 </i>
    <i name="e_0_energy">    -27.81212704 </i>
   </energy>
  </scstep>
  <scstep>
   <time name="dav">    1.33    1.33</time>
   <time name="total">    1.44    1.45</time>
   <energy>
    <i name="e_fr_energy">    -26.30023466 </i>
    <i name="e_wo_entrp">    -26.30023466 </i>
    <i name="e_0_energy">    -26.30023466 </i>
   </energy>
  </scstep>
  <scstep>
   <time name="dav">    1.47    1.48</time>
   <time name="total">    1.59    1.59</time>
   <energy>
    <i name="e_fr_energy">    -26.12951028 </i>
    <i name="e_wo_entrp">    -26.12951028 </i>
    <i name="e_0_energy">    -26.12951028 </i>
   </energy>
  </scstep>
  <scstep>
   <time name="dav">    1.34    1.34</time>
   <time name="total">    1.46    1.46</time>
   <energy>
    <i name="e_fr_energy">    -26.13392046 </i>
    <i name="e_wo_entrp">    -26.13392046 </i>
    <i name="e_0_energy">    -26.13392046 </i>
   </energy>
  </scstep>
  <scstep>
   <time name="dav">    1.46    1.46</time>
   <time name="total">    1.58    1.58</time>
   <energy>
    <i name="e_fr_energy">    -26.13141158 </i>
    <i name="e_wo_entrp">    -26.13141158 </i>
    <i name="e_0_energy">    -26.13141158 </i>
   </energy>
  </scstep>
  <scstep>
   <time name="dav">    1.34    1.34</time>
   <time name="total">    1.47    1.47</time>
   <energy>
    <i name="e_fr_energy">    -26.13206350 </i>
    <i name="e_wo_entrp">    -26.13206350 </i>
    <i name="e_0_energy">    -26.13206350 </i>
   </energy>
  </scstep>
  <scstep>
   <time name="dav">    1.33    1.34</time>
   <time name="total">    1.46    1.46</time>
   <energy>
    <i name="e_fr_energy">    -26.13224899 </i>
    <i name="e_wo_entrp">    -26.13224899 </i>
    <i name="e_0_energy">    -26.13224899 </i>
   </energy>
  </scstep>
  <scstep>
   <time name="dav">    1.34    1.35</time>
   <time name="total">    1.46    1.46</time>
   <energy>
    <i name="e_fr_energy">    -26.13225704 </i>
    <i name="e_wo_entrp">    -26.13225704 </i>
    <i name="e_0_energy">    -26.13225704 </i>
   </energy>
  </scstep>
  <scstep>
   <time name="dav">    1.42    1.42</time>
   <time name="total">    1.54    1.54</time>
   <energy>
    <i name="e_fr_energy">    -26.13225611 </i>
    <i name="e_wo_entrp">    -26.13225611 </i>
    <i name="e_0_energy">    -26.13225611 </i>
   </energy>
  </scstep>
  <scstep>
   <time name="dav">    1.14    1.14</time>
   <time name="total">    1.26    1.26</time>
   <energy>
    <i name="e_fr_energy">    -26.13225613 </i>
    <i name="e_wo_entrp">    -26.13225613 </i>
    <i name="e_0_energy">    -26.13225613 </i>
   </energy>
  </scstep>
  <scstep>
   <time name="dav">    1.03    1.04</time>
   <time name="total">    1.06    1.07</time>
   <energy>
    <i name="alphaZ">    214.16676563 </i>
    <i name="ewald">  -3265.84787668 </i>
    <i name="hartreedc">   -554.75530110 </i>
    <i name="XCdc">   -118.49244315 </i>
    <i name="pawpsdc">   3633.68015712 </i>
    <i name="pawaedc">  -3361.17706277 </i>
    <i name="eentropy">     -0.00000000 </i>
    <i name="bandstr">   -435.32163800 </i>
    <i name="atom">   3861.61514281 </i>
    <i name="e_fr_energy">    -26.13225613 </i>
    <i name="e_wo_entrp">    -26.13225613 </i>
    <i name="e_0_energy">    -26.13225613 </i>
   </energy>
  </scstep>
  <structure>
   <crystal>
    <varray name="basis" >
     <v>       4.14369834       4.14369834       0.00000000 </v>
     <v>       4.14369834      -4.14369834       0.00000000 </v>
     <v>       0.00000000       4.14369834      -8.28739668 </v>
    </varray>
    <i name="volume">    284.59311253 </i>
    <varray name="rec_basis" >
     <v>       0.12066515       0.12066515       0.06033258 </v>
     <v>       0.12066515      -0.12066515      -0.06033258 </v>
     <v>       0.00000000       0.00000000      -0.12066515 </v>
    </varray>
   </crystal>
   <varray name="positions" >
    <v>       0.00000000       0.00000000       0.00000000 </v>
    <v>       0.50000000       0.50000000       0.00000000 </v>
    <v>       0.25000000       0.75000000       0.50000000 </v>
    <v>       0.75000000       0.25000000       0.50000000 </v>
    <v>       0.62500000       0.87500000       0.75107926 </v>
    <v>       0.12500000       0.37500000       0.75000000 </v>
    <v>       0.87500000       0.62500000       0.25000000 </v>
    <v>       0.37500000       0.12500000       0.25000000 </v>
   </varray>
  </structure>
  <varray name="forces" >
   <v>       0.00061098       0.00091021      -0.00180369 </v>
   <v>      -0.00061098       0.00091021      -0.00180369 </v>
   <v>       0.00055202       0.00086036      -0.00173848 </v>
   <v>      -0.00055202       0.00086036      -0.00173848 </v>
   <v>      -0.00000000      -0.00564269       0.01363634 </v>
   <v>       0.00000000       0.00183952       0.00208625 </v>
   <v>       0.00000000       0.00012783      -0.00430974 </v>
   <v>       0.00000000       0.00013421      -0.00432851 </v>
  </varray>
  <varray name="stress" >
   <v>       7.41026247       0.00000000       0.00000000 </v>
   <v>       0.00000000       7.40918372      -0.00126656 </v>
   <v>       0.00000000      -0.00126656       7.41487587 </v>
  </varray>
  <energy>
   <i name="e_fr_energy">    -26.13225613 </i>
   <i name="e_wo_entrp">    -26.13225613 </i>
   <i name="e_0_energy">    -26.13225613 </i>
  </energy>
  <time name="totalsc">   22.51   22.55</time>
  <eigenvalues>
   <array>
    <dimension dim="1">band</dimension>
    <dimension dim="2">kpoint</dimension>
    <dimension dim="3">spin</dimension>
    <field>eigene</field>
    <field>occ</field>
    <set>
     <set comment="spin 1">
      <set comment="kpoint 1">
       <r>  -19.7965    1.0000 </r>
       <r>  -19.7190    1.0000 </r>
       <r>  -19.6272    1.0000 </r>
       <r>  -19.6180    1.0000 </r>
       <r>  -12.5928    1.0000 </r>
       <r>  -12.5528    1.0000 </r>
       <r>  -12.4304    1.0000 </r>
       <r>  -12.4297    1.0000 </r>
       <r>   -6.9284    1.0000 </r>
       <r>   -6.9284    1.0000 </r>
       <r>   -6.9206    1.0000 </r>
       <r>   -6.9206    1.0000 </r>
       <r>   -6.8086    1.0000 </r>
       <r>   -6.4650    1.0000 </r>
       <r>   -6.4574    1.0000 </r>
       <r>   -6.2937    1.0000 </r>
       <r>   -6.2937    1.0000 </r>
       <r>   -6.2935    1.0000 </r>
       <r>   -6.1595    1.0000 </r>
       <r>   -6.1595    1.0000 </r>
       <r>   -1.5317    1.0000 </r>
       <r>   -1.1388    1.0000 </r>
       <r>   -1.1388    1.0000 </r>
       <r>   -1.1362    1.0000 </r>
       <r>   -1.1362    1.0000 </r>
       <r>   -1.0025    1.0000 </r>
       <r>   -0.9980    1.0000 </r>
       <r>   -0.6184    1.0000 </r>
       <r>   -0.6184    1.0000 </r>
       <r>   -0.3952    1.0000 </r>
       <r>   -0.3952    1.0000 </r>
       <r>   -0.3952    1.0000 </r>
       <r>    4.7979    0.0000 </r>
       <r>    5.0131    0.0000 </r>
       <r>    5.0131    0.0000 </r>
       <r>    6.0111    0.0000 </r>
       <r>    6.7787    0.0000 </r>
       <r>    6.7981    0.0000 </r>
       <r>    7.1417    0.0000 </r>
       <r>    7.1902    0.0000 </r>
      </set>
      <set comment="kpoint 2">
       <r>  -19.7901    1.0000 </r>
       <r>  -19.7148    1.0000 </r>
       <r>  -19.6351    1.0000 </r>
       <r>  -19.6199    1.0000 </r>
       <r>  -12.5834    1.0000 </r>
       <r>  -12.5553    1.0000 </r>
       <r>  -12.4458    1.0000 </r>
       <r>  -12.4301    1.0000 </r>
       <r>   -6.9225    1.0000 </r>
       <r>   -6.9121    1.0000 </r>
       <r>   -6.8784    1.0000 </r>
       <r>   -6.8754    1.0000 </r>
       <r>   -6.8197    1.0000 </r>
       <r>   -6.5443    1.0000 </r>
       <r>   -6.4005    1.0000 </r>
       <r>   -6.3240    1.0000 </r>
       <r>   -6.3036    1.0000 </r>
       <r>   -6.2837    1.0000 </r>
       <r>   -6.2043    1.0000 </r>
       <r>   -6.1883    1.0000 </r>
       <r>   -1.4622    1.0000 </r>
       <r>   -1.2219    1.0000 </r>
       <r>   -1.1774    1.0000 </r>
       <r>   -1.1069    1.0000 </r>
       <r>   -1.0567    1.0000 </r>
       <r>   -1.0078    1.0000 </r>
       <r>   -0.8413    1.0000 </r>
       <r>   -0.6524    1.0000 </r>
       <r>   -0.5910    1.0000 </r>
       <r>   -0.5014    1.0000 </r>
       <r>   -0.4209    1.0000 </r>
       <r>   -0.4157    1.0000 </r>
       <r>    5.0065    0.0000 </r>
       <r>    5.1216    0.0000 </r>
       <r>    5.1708    0.0000 </r>
       <r>    6.0964    0.0000 </r>
       <r>    6.5680    0.0000 </r>
       <r>    6.8534    0.0000 </r>
       <r>    6.9506    0.0000 </r>
       <r>    7.1198    0.0000 </r>
      </set>
      <set comment="kpoint 3">
       <r>  -19.7718    1.0000 </r>
       <r>  -19.7029    1.0000 </r>
       <r>  -19.6547    1.0000 </r>
       <r>  -19.6287    1.0000 </r>
       <r>  -12.5593    1.0000 </r>
       <r>  -12.5582    1.0000 </r>
       <r>  -12.4755    1.0000 </r>
       <r>  -12.4424    1.0000 </r>
       <r>   -6.8721    1.0000 </r>
       <r>   -6.8428    1.0000 </r>
       <r>   -6.8243    1.0000 </r>
       <r>   -6.7919    1.0000 </r>
       <r>   -6.7899    1.0000 </r>
       <r>   -6.6461    1.0000 </r>
       <r>   -6.4079    1.0000 </r>
       <r>   -6.3572    1.0000 </r>
       <r>   -6.3366    1.0000 </r>
       <r>   -6.3151    1.0000 </r>
       <r>   -6.2696    1.0000 </r>
       <r>   -6.2681    1.0000 </r>
       <r>   -1.2984    1.0000 </r>
       <r>   -1.2095    1.0000 </r>
       <r>   -1.1675    1.0000 </r>
       <r>   -1.0720    1.0000 </r>
       <r>   -0.9486    1.0000 </r>
       <r>   -0.9452    1.0000 </r>
       <r>   -0.7449    1.0000 </r>
       <r>   -0.7272    1.0000 </r>
       <r>   -0.7079    1.0000 </r>
       <r>   -0.5447    1.0000 </r>
       <r>   -0.4907    1.0000 </r>
       <r>   -0.4723    1.0000 </r>
       <r>    5.4132    0.0000 </r>
       <r>    5.5456    0.0000 </r>
       <r>    5.6239    0.0000 </r>
       <r>    6.3583    0.0000 </r>
       <r>    6.5395    0.0000 </r>
       <r>    6.6643    0.0000 </r>
       <r>    6.9624    0.0000 </r>
       <r>    7.0060    0.0000 </r>
      </set>
      <set comment="kpoint 4">
       <r>  -19.7448    1.0000 </r>
       <r>  -19.6851    1.0000 </r>
       <r>  -19.6819    1.0000 </r>
       <r>  -19.6445    1.0000 </r>
       <r>  -12.5565    1.0000 </r>
       <r>  -12.5250    1.0000 </r>
       <r>  -12.5108    1.0000 </r>
       <r>  -12.4635    1.0000 </r>
       <r>   -6.8524    1.0000 </r>
       <r>   -6.7802    1.0000 </r>
       <r>   -6.7497    1.0000 </r>
       <r>   -6.6918    1.0000 </r>
       <r>   -6.6764    1.0000 </r>
       <r>   -6.6686    1.0000 </r>
       <r>   -6.5275    1.0000 </r>
       <r>   -6.4502    1.0000 </r>
       <r>   -6.4020    1.0000 </r>
       <r>   -6.3894    1.0000 </r>
       <r>   -6.3237    1.0000 </r>
       <r>   -6.2717    1.0000 </r>
       <r>   -1.1325    1.0000 </r>
       <r>   -1.1060    1.0000 </r>
       <r>   -1.0884    1.0000 </r>
       <r>   -1.0301    1.0000 </r>
       <r>   -0.9142    1.0000 </r>
       <r>   -0.8715    1.0000 </r>
       <r>   -0.8618    1.0000 </r>
       <r>   -0.8272    1.0000 </r>
       <r>   -0.6598    1.0000 </r>
       <r>   -0.5895    1.0000 </r>
       <r>   -0.5674    1.0000 </r>
       <r>   -0.5497    1.0000 </r>
       <r>    5.8394    0.0000 </r>
       <r>    6.1949    0.0000 </r>
       <r>    6.3224    0.0000 </r>
       <r>    6.5100    0.0000 </r>
       <r>    6.7617    0.0000 </r>
       <r>    6.8041    0.0000 </r>
       <r>    6.8353    0.0000 </r>
       <r>    6.9358    0.0000 </r>
      </set>
      <set comment="kpoint 5">
       <r>  -19.7133    1.0000 </r>
       <r>  -19.7133    1.0000 </r>
       <r>  -19.6645    1.0000 </r>
       <r>  -19.6645    1.0000 </r>
       <r>  -12.5410    1.0000 </r>
       <r>  -12.5396    1.0000 </r>
       <r>  -12.4929    1.0000 </r>
       <r>  -12.4904    1.0000 </r>
       <r>   -6.8233    1.0000 </r>
       <r>   -6.8233    1.0000 </r>
       <r>   -6.6593    1.0000 </r>
       <r>   -6.6591    1.0000 </r>
       <r>   -6.5785    1.0000 </r>
       <r>   -6.5774    1.0000 </r>
       <r>   -6.5291    1.0000 </r>
       <r>   -6.5289    1.0000 </r>
       <r>   -6.5208    1.0000 </r>
       <r>   -6.5199    1.0000 </r>
       <r>   -6.2948    1.0000 </r>
       <r>   -6.2942    1.0000 </r>
       <r>   -1.0421    1.0000 </r>
       <r>   -1.0411    1.0000 </r>
       <r>   -1.0019    1.0000 </r>
       <r>   -1.0005    1.0000 </r>
       <r>   -0.9967    1.0000 </r>
       <r>   -0.9964    1.0000 </r>
       <r>   -0.7082    1.0000 </r>
       <r>   -0.7064    1.0000 </r>
       <r>   -0.7051    1.0000 </r>
       <r>   -0.7039    1.0000 </r>
       <r>   -0.6237    1.0000 </r>
       <r>   -0.6185    1.0000 </r>
       <r>    6.2532    0.0000 </r>
       <r>    6.2535    0.0000 </r>
       <r>    6.7158    0.0000 </r>
       <r>    6.7226    0.0000 </r>
       <r>    6.8763    0.0000 </r>
       <r>    6.8806    0.0000 </r>
       <r>    7.2008    0.0000 </r>
       <r>    7.2040    0.0000 </r>
      </set>
      <set comment="kpoint 6">
       <r>  -19.7854    1.0000 </r>
       <r>  -19.7095    1.0000 </r>
       <r>  -19.6367    1.0000 </r>
       <r>  -19.6275    1.0000 </r>
       <r>  -12.5752    1.0000 </r>
       <r>  -12.5578    1.0000 </r>
       <r>  -12.4457    1.0000 </r>
       <r>  -12.4450    1.0000 </r>
       <r>   -6.9259    1.0000 </r>
       <r>   -6.9178    1.0000 </r>
       <r>   -6.8399    1.0000 </r>
       <r>   -6.8254    1.0000 </r>
       <r>   -6.8176    1.0000 </r>
       <r>   -6.4876    1.0000 </r>
       <r>   -6.4802    1.0000 </r>
       <r>   -6.3790    1.0000 </r>
       <r>   -6.3068    1.0000 </r>
       <r>   -6.2748    1.0000 </r>
       <r>   -6.2746    1.0000 </r>
       <r>   -6.1475    1.0000 </r>
       <r>   -1.4122    1.0000 </r>
       <r>   -1.1592    1.0000 </r>
       <r>   -1.1582    1.0000 </r>
       <r>   -1.1266    1.0000 </r>
       <r>   -1.1247    1.0000 </r>
       <r>   -0.8597    1.0000 </r>
       <r>   -0.8585    1.0000 </r>
       <r>   -0.6576    1.0000 </r>
       <r>   -0.5992    1.0000 </r>
       <r>   -0.5940    1.0000 </r>
       <r>   -0.4264    1.0000 </r>
       <r>   -0.4263    1.0000 </r>
       <r>    5.1165    0.0000 </r>
       <r>    5.1573    0.0000 </r>
       <r>    5.3824    0.0000 </r>
       <r>    6.1389    0.0000 </r>
       <r>    6.7346    0.0000 </r>
       <r>    6.7462    0.0000 </r>
       <r>    7.1688    0.0000 </r>
       <r>    7.2322    0.0000 </r>
      </set>
      <set comment="kpoint 7">
       <r>  -19.7697    1.0000 </r>
       <r>  -19.6972    1.0000 </r>
       <r>  -19.6528    1.0000 </r>
       <r>  -19.6374    1.0000 </r>
       <r>  -12.5630    1.0000 </r>
       <r>  -12.5514    1.0000 </r>
       <r>  -12.4741    1.0000 </r>
       <r>  -12.4563    1.0000 </r>
       <r>   -6.9038    1.0000 </r>
       <r>   -6.8851    1.0000 </r>
       <r>   -6.8733    1.0000 </r>
       <r>   -6.7198    1.0000 </r>
       <r>   -6.6924    1.0000 </r>
       <r>   -6.5803    1.0000 </r>
       <r>   -6.4750    1.0000 </r>
       <r>   -6.4550    1.0000 </r>
       <r>   -6.4374    1.0000 </r>
       <r>   -6.2761    1.0000 </r>
       <r>   -6.2530    1.0000 </r>
       <r>   -6.1705    1.0000 </r>
       <r>   -1.2678    1.0000 </r>
       <r>   -1.1621    1.0000 </r>
       <r>   -1.1245    1.0000 </r>
       <r>   -1.0962    1.0000 </r>
       <r>   -1.0419    1.0000 </r>
       <r>   -0.8209    1.0000 </r>
       <r>   -0.8191    1.0000 </r>
       <r>   -0.7345    1.0000 </r>
       <r>   -0.7032    1.0000 </r>
       <r>   -0.5489    1.0000 </r>
       <r>   -0.4804    1.0000 </r>
       <r>   -0.4691    1.0000 </r>
       <r>    5.3285    0.0000 </r>
       <r>    5.6010    0.0000 </r>
       <r>    5.8837    0.0000 </r>
       <r>    6.2181    0.0000 </r>
       <r>    6.6584    0.0000 </r>
       <r>    6.8235    0.0000 </r>
       <r>    6.9720    0.0000 </r>
       <r>    6.9774    0.0000 </r>
      </set>
      <set comment="kpoint 8">
       <r>  -19.7455    1.0000 </r>
       <r>  -19.6797    1.0000 </r>
       <r>  -19.6782    1.0000 </r>
       <r>  -19.6516    1.0000 </r>
       <r>  -12.5629    1.0000 </r>
       <r>  -12.5190    1.0000 </r>
       <r>  -12.5091    1.0000 </r>
       <r>  -12.4740    1.0000 </r>
       <r>   -6.8960    1.0000 </r>
       <r>   -6.8305    1.0000 </r>
       <r>   -6.8197    1.0000 </r>
       <r>   -6.7011    1.0000 </r>
       <r>   -6.6067    1.0000 </r>
       <r>   -6.5922    1.0000 </r>
       <r>   -6.5780    1.0000 </r>
       <r>   -6.5257    1.0000 </r>
       <r>   -6.3976    1.0000 </r>
       <r>   -6.3256    1.0000 </r>
       <r>   -6.2513    1.0000 </r>
       <r>   -6.2393    1.0000 </r>
       <r>   -1.1213    1.0000 </r>
       <r>   -1.0906    1.0000 </r>
       <r>   -1.0595    1.0000 </r>
       <r>   -1.0305    1.0000 </r>
       <r>   -1.0178    1.0000 </r>
       <r>   -0.9086    1.0000 </r>
       <r>   -0.8524    1.0000 </r>
       <r>   -0.7786    1.0000 </r>
       <r>   -0.6330    1.0000 </r>
       <r>   -0.5719    1.0000 </r>
       <r>   -0.5480    1.0000 </r>
       <r>   -0.5196    1.0000 </r>
       <r>    5.7101    0.0000 </r>
       <r>    6.1484    0.0000 </r>
       <r>    6.3778    0.0000 </r>
       <r>    6.5841    0.0000 </r>
       <r>    6.6474    0.0000 </r>
       <r>    6.7710    0.0000 </r>
       <r>    6.8372    0.0000 </r>
       <r>    6.8921    0.0000 </r>
      </set>
      <set comment="kpoint 9">
       <r>  -19.7169    1.0000 </r>
       <r>  -19.7079    1.0000 </r>
       <r>  -19.6693    1.0000 </r>
       <r>  -19.6600    1.0000 </r>
       <r>  -12.5503    1.0000 </r>
       <r>  -12.5396    1.0000 </r>
       <r>  -12.4970    1.0000 </r>
       <r>  -12.4860    1.0000 </r>
       <r>   -6.8826    1.0000 </r>
       <r>   -6.8015    1.0000 </r>
       <r>   -6.7301    1.0000 </r>
       <r>   -6.7208    1.0000 </r>
       <r>   -6.7187    1.0000 </r>
       <r>   -6.7052    1.0000 </r>
       <r>   -6.4358    1.0000 </r>
       <r>   -6.4303    1.0000 </r>
       <r>   -6.3848    1.0000 </r>
       <r>   -6.3693    1.0000 </r>
       <r>   -6.3570    1.0000 </r>
       <r>   -6.2439    1.0000 </r>
       <r>   -1.1010    1.0000 </r>
       <r>   -1.0700    1.0000 </r>
       <r>   -1.0447    1.0000 </r>
       <r>   -1.0431    1.0000 </r>
       <r>   -0.9603    1.0000 </r>
       <r>   -0.8972    1.0000 </r>
       <r>   -0.7574    1.0000 </r>
       <r>   -0.6977    1.0000 </r>
       <r>   -0.6874    1.0000 </r>
       <r>   -0.6646    1.0000 </r>
       <r>   -0.6012    1.0000 </r>
       <r>   -0.5562    1.0000 </r>
       <r>    6.1151    0.0000 </r>
       <r>    6.4624    0.0000 </r>
       <r>    6.6101    0.0000 </r>
       <r>    6.6295    0.0000 </r>
       <r>    6.7279    0.0000 </r>
       <r>    6.7306    0.0000 </r>
       <r>    6.7387    0.0000 </r>
       <r>    6.8058    0.0000 </r>
      </set>
      <set comment="kpoint 10">
       <r>  -19.7381    1.0000 </r>
       <r>  -19.6883    1.0000 </r>
       <r>  -19.6874    1.0000 </r>
       <r>  -19.6413    1.0000 </r>
       <r>  -12.5575    1.0000 </r>
       <r>  -12.5245    1.0000 </r>
       <r>  -12.5232    1.0000 </r>
       <r>  -12.4590    1.0000 </r>
       <r>   -6.8374    1.0000 </r>
       <r>   -6.8357    1.0000 </r>
       <r>   -6.8302    1.0000 </r>
       <r>   -6.8074    1.0000 </r>
       <r>   -6.5999    1.0000 </r>
       <r>   -6.5917    1.0000 </r>
       <r>   -6.5892    1.0000 </r>
       <r>   -6.5050    1.0000 </r>
       <r>   -6.3404    1.0000 </r>
       <r>   -6.2988    1.0000 </r>
       <r>   -6.2632    1.0000 </r>
       <r>   -6.2627    1.0000 </r>
       <r>   -1.1411    1.0000 </r>
       <r>   -1.0907    1.0000 </r>
       <r>   -1.0897    1.0000 </r>
       <r>   -1.0579    1.0000 </r>
       <r>   -0.9931    1.0000 </r>
       <r>   -0.8285    1.0000 </r>
       <r>   -0.8138    1.0000 </r>
       <r>   -0.8112    1.0000 </r>
       <r>   -0.6149    1.0000 </r>
       <r>   -0.5740    1.0000 </r>
       <r>   -0.5729    1.0000 </r>
       <r>   -0.5525    1.0000 </r>
       <r>    5.9311    0.0000 </r>
       <r>    6.2618    0.0000 </r>
       <r>    6.3503    0.0000 </r>
       <r>    6.3513    0.0000 </r>
       <r>    6.6774    0.0000 </r>
       <r>    6.7137    0.0000 </r>
       <r>    6.7146    0.0000 </r>
       <r>    6.7764    0.0000 </r>
      </set>
      <set comment="kpoint 11">
       <r>  -19.7643    1.0000 </r>
       <r>  -19.7027    1.0000 </r>
       <r>  -19.6633    1.0000 </r>
       <r>  -19.6268    1.0000 </r>
       <r>  -12.5617    1.0000 </r>
       <r>  -12.5519    1.0000 </r>
       <r>  -12.4904    1.0000 </r>
       <r>  -12.4396    1.0000 </r>
       <r>   -6.9198    1.0000 </r>
       <r>   -6.8713    1.0000 </r>
       <r>   -6.8361    1.0000 </r>
       <r>   -6.7472    1.0000 </r>
       <r>   -6.7361    1.0000 </r>
       <r>   -6.6371    1.0000 </r>
       <r>   -6.4813    1.0000 </r>
       <r>   -6.4506    1.0000 </r>
       <r>   -6.3056    1.0000 </r>
       <r>   -6.2941    1.0000 </r>
       <r>   -6.2602    1.0000 </r>
       <r>   -6.1793    1.0000 </r>
       <r>   -1.2330    1.0000 </r>
       <r>   -1.2308    1.0000 </r>
       <r>   -1.1789    1.0000 </r>
       <r>   -1.0577    1.0000 </r>
       <r>   -0.9393    1.0000 </r>
       <r>   -0.9321    1.0000 </r>
       <r>   -0.8401    1.0000 </r>
       <r>   -0.7153    1.0000 </r>
       <r>   -0.6059    1.0000 </r>
       <r>   -0.5474    1.0000 </r>
       <r>   -0.5065    1.0000 </r>
       <r>   -0.4878    1.0000 </r>
       <r>    5.4647    0.0000 </r>
       <r>    5.7154    0.0000 </r>
       <r>    5.9625    0.0000 </r>
       <r>    6.1604    0.0000 </r>
       <r>    6.4320    0.0000 </r>
       <r>    6.4901    0.0000 </r>
       <r>    6.8567    0.0000 </r>
       <r>    6.9571    0.0000 </r>
      </set>
      <set comment="kpoint 12">
       <r>  -19.7826    1.0000 </r>
       <r>  -19.7124    1.0000 </r>
       <r>  -19.6449    1.0000 </r>
       <r>  -19.6192    1.0000 </r>
       <r>  -12.5743    1.0000 </r>
       <r>  -12.5582    1.0000 </r>
       <r>  -12.4614    1.0000 </r>
       <r>  -12.4291    1.0000 </r>
       <r>   -6.9517    1.0000 </r>
       <r>   -6.8916    1.0000 </r>
       <r>   -6.8603    1.0000 </r>
       <r>   -6.8221    1.0000 </r>
       <r>   -6.7827    1.0000 </r>
       <r>   -6.6222    1.0000 </r>
       <r>   -6.3834    1.0000 </r>
       <r>   -6.3385    1.0000 </r>
       <r>   -6.3082    1.0000 </r>
       <r>   -6.2917    1.0000 </r>
       <r>   -6.2701    1.0000 </r>
       <r>   -6.1525    1.0000 </r>
       <r>   -1.3853    1.0000 </r>
       <r>   -1.2696    1.0000 </r>
       <r>   -1.2137    1.0000 </r>
       <r>   -1.0408    1.0000 </r>
       <r>   -1.0316    1.0000 </r>
       <r>   -1.0127    1.0000 </r>
       <r>   -0.7107    1.0000 </r>
       <r>   -0.6494    1.0000 </r>
       <r>   -0.6273    1.0000 </r>
       <r>   -0.5871    1.0000 </r>
       <r>   -0.4443    1.0000 </r>
       <r>   -0.4323    1.0000 </r>
       <r>    5.1815    0.0000 </r>
       <r>    5.2399    0.0000 </r>
       <r>    5.4265    0.0000 </r>
       <r>    6.0906    0.0000 </r>
       <r>    6.4155    0.0000 </r>
       <r>    6.5815    0.0000 </r>
       <r>    7.0505    0.0000 </r>
       <r>    7.0811    0.0000 </r>
      </set>
      <set comment="kpoint 13">
       <r>  -19.7584    1.0000 </r>
       <r>  -19.6863    1.0000 </r>
       <r>  -19.6594    1.0000 </r>
       <r>  -19.6502    1.0000 </r>
       <r>  -12.5710    1.0000 </r>
       <r>  -12.5318    1.0000 </r>
       <r>  -12.4821    1.0000 </r>
       <r>  -12.4812    1.0000 </r>
       <r>   -6.9222    1.0000 </r>
       <r>   -6.9176    1.0000 </r>
       <r>   -6.9135    1.0000 </r>
       <r>   -6.6313    1.0000 </r>
       <r>   -6.5948    1.0000 </r>
       <r>   -6.5943    1.0000 </r>
       <r>   -6.5692    1.0000 </r>
       <r>   -6.5009    1.0000 </r>
       <r>   -6.5003    1.0000 </r>
       <r>   -6.2282    1.0000 </r>
       <r>   -6.2280    1.0000 </r>
       <r>   -6.1181    1.0000 </r>
       <r>   -1.1501    1.0000 </r>
       <r>   -1.1141    1.0000 </r>
       <r>   -1.1140    1.0000 </r>
       <r>   -1.0657    1.0000 </r>
       <r>   -1.0626    1.0000 </r>
       <r>   -1.0266    1.0000 </r>
       <r>   -0.7375    1.0000 </r>
       <r>   -0.6550    1.0000 </r>
       <r>   -0.6550    1.0000 </r>
       <r>   -0.5334    1.0000 </r>
       <r>   -0.5038    1.0000 </r>
       <r>   -0.5038    1.0000 </r>
       <r>    5.4068    0.0000 </r>
       <r>    5.9534    0.0000 </r>
       <r>    6.0089    0.0000 </r>
       <r>    6.4255    0.0000 </r>
       <r>    6.5217    0.0000 </r>
       <r>    6.6994    0.0000 </r>
       <r>    6.6997    0.0000 </r>
       <r>    7.2519    0.0000 </r>
      </set>
      <set comment="kpoint 14">
       <r>  -19.7404    1.0000 </r>
       <r>  -19.6775    1.0000 </r>
       <r>  -19.6720    1.0000 </r>
       <r>  -19.6619    1.0000 </r>
       <r>  -12.5755    1.0000 </r>
       <r>  -12.5136    1.0000 </r>
       <r>  -12.5049    1.0000 </r>
       <r>  -12.4926    1.0000 </r>
       <r>   -6.9526    1.0000 </r>
       <r>   -6.9039    1.0000 </r>
       <r>   -6.8850    1.0000 </r>
       <r>   -6.7824    1.0000 </r>
       <r>   -6.6727    1.0000 </r>
       <r>   -6.6620    1.0000 </r>
       <r>   -6.5122    1.0000 </r>
       <r>   -6.3929    1.0000 </r>
       <r>   -6.3742    1.0000 </r>
       <r>   -6.2324    1.0000 </r>
       <r>   -6.2064    1.0000 </r>
       <r>   -6.1360    1.0000 </r>
       <r>   -1.2141    1.0000 </r>
       <r>   -1.1284    1.0000 </r>
       <r>   -1.0857    1.0000 </r>
       <r>   -1.0261    1.0000 </r>
       <r>   -0.9764    1.0000 </r>
       <r>   -0.9242    1.0000 </r>
       <r>   -0.8052    1.0000 </r>
       <r>   -0.6214    1.0000 </r>
       <r>   -0.5715    1.0000 </r>
       <r>   -0.5657    1.0000 </r>
       <r>   -0.5424    1.0000 </r>
       <r>   -0.5139    1.0000 </r>
       <r>    5.6763    0.0000 </r>
       <r>    5.9392    0.0000 </r>
       <r>    6.2029    0.0000 </r>
       <r>    6.4039    0.0000 </r>
       <r>    6.6316    0.0000 </r>
       <r>    6.7728    0.0000 </r>
       <r>    6.7766    0.0000 </r>
       <r>    6.9032    0.0000 </r>
      </set>
      <set comment="kpoint 15">
       <r>  -19.7188    1.0000 </r>
       <r>  -19.7014    1.0000 </r>
       <r>  -19.6742    1.0000 </r>
       <r>  -19.6564    1.0000 </r>
       <r>  -12.5682    1.0000 </r>
       <r>  -12.5423    1.0000 </r>
       <r>  -12.5053    1.0000 </r>
       <r>  -12.4786    1.0000 </r>
       <r>   -6.9543    1.0000 </r>
       <r>   -6.8821    1.0000 </r>
       <r>   -6.8671    1.0000 </r>
       <r>   -6.8086    1.0000 </r>
       <r>   -6.7748    1.0000 </r>
       <r>   -6.7336    1.0000 </r>
       <r>   -6.4388    1.0000 </r>
       <r>   -6.3094    1.0000 </r>
       <r>   -6.2822    1.0000 </r>
       <r>   -6.2429    1.0000 </r>
       <r>   -6.2137    1.0000 </r>
       <r>   -6.2014    1.0000 </r>
       <r>   -1.2860    1.0000 </r>
       <r>   -1.1574    1.0000 </r>
       <r>   -1.0454    1.0000 </r>
       <r>   -0.9911    1.0000 </r>
       <r>   -0.8891    1.0000 </r>
       <r>   -0.8349    1.0000 </r>
       <r>   -0.7708    1.0000 </r>
       <r>   -0.6571    1.0000 </r>
       <r>   -0.5926    1.0000 </r>
       <r>   -0.5898    1.0000 </r>
       <r>   -0.5555    1.0000 </r>
       <r>   -0.5537    1.0000 </r>
       <r>    6.0425    0.0000 </r>
       <r>    6.1063    0.0000 </r>
       <r>    6.1823    0.0000 </r>
       <r>    6.2512    0.0000 </r>
       <r>    6.3865    0.0000 </r>
       <r>    6.5065    0.0000 </r>
       <r>    6.7898    0.0000 </r>
       <r>    6.8163    0.0000 </r>
      </set>
      <set comment="kpoint 16">
       <r>  -19.7261    1.0000 </r>
       <r>  -19.6970    1.0000 </r>
       <r>  -19.6866    1.0000 </r>
       <r>  -19.6421    1.0000 </r>
       <r>  -12.5601    1.0000 </r>
       <r>  -12.5468    1.0000 </r>
       <r>  -12.5201    1.0000 </r>
       <r>  -12.4583    1.0000 </r>
       <r>   -6.9344    1.0000 </r>
       <r>   -6.8991    1.0000 </r>
       <r>   -6.8620    1.0000 </r>
       <r>   -6.8487    1.0000 </r>
       <r>   -6.7156    1.0000 </r>
       <r>   -6.7042    1.0000 </r>
       <r>   -6.4498    1.0000 </r>
       <r>   -6.3735    1.0000 </r>
       <r>   -6.3352    1.0000 </r>
       <r>   -6.2158    1.0000 </r>
       <r>   -6.2132    1.0000 </r>
       <r>   -6.1580    1.0000 </r>
       <r>   -1.2356    1.0000 </r>
       <r>   -1.1445    1.0000 </r>
       <r>   -1.0602    1.0000 </r>
       <r>   -1.0498    1.0000 </r>
       <r>   -0.9926    1.0000 </r>
       <r>   -0.7640    1.0000 </r>
       <r>   -0.7527    1.0000 </r>
       <r>   -0.7379    1.0000 </r>
       <r>   -0.6389    1.0000 </r>
       <r>   -0.5412    1.0000 </r>
       <r>   -0.5399    1.0000 </r>
       <r>   -0.5351    1.0000 </r>
       <r>    5.9501    0.0000 </r>
       <r>    5.9648    0.0000 </r>
       <r>    6.3114    0.0000 </r>
       <r>    6.4070    0.0000 </r>
       <r>    6.4196    0.0000 </r>
       <r>    6.5333    0.0000 </r>
       <r>    6.5684    0.0000 </r>
       <r>    6.9245    0.0000 </r>
      </set>
      <set comment="kpoint 17">
       <r>  -19.7482    1.0000 </r>
       <r>  -19.6968    1.0000 </r>
       <r>  -19.6778    1.0000 </r>
       <r>  -19.6316    1.0000 </r>
       <r>  -12.5648    1.0000 </r>
       <r>  -12.5370    1.0000 </r>
       <r>  -12.5172    1.0000 </r>
       <r>  -12.4453    1.0000 </r>
       <r>   -6.9244    1.0000 </r>
       <r>   -6.9145    1.0000 </r>
       <r>   -6.8443    1.0000 </r>
       <r>   -6.8215    1.0000 </r>
       <r>   -6.6104    1.0000 </r>
       <r>   -6.6046    1.0000 </r>
       <r>   -6.5911    1.0000 </r>
       <r>   -6.4838    1.0000 </r>
       <r>   -6.3249    1.0000 </r>
       <r>   -6.2473    1.0000 </r>
       <r>   -6.2126    1.0000 </r>
       <r>   -6.1345    1.0000 </r>
       <r>   -1.1588    1.0000 </r>
       <r>   -1.1319    1.0000 </r>
       <r>   -1.1270    1.0000 </r>
       <r>   -1.1256    1.0000 </r>
       <r>   -1.0287    1.0000 </r>
       <r>   -0.8672    1.0000 </r>
       <r>   -0.8589    1.0000 </r>
       <r>   -0.7099    1.0000 </r>
       <r>   -0.5559    1.0000 </r>
       <r>   -0.5385    1.0000 </r>
       <r>   -0.5277    1.0000 </r>
       <r>   -0.5069    1.0000 </r>
       <r>    5.6258    0.0000 </r>
       <r>    5.9593    0.0000 </r>
       <r>    6.1124    0.0000 </r>
       <r>    6.3914    0.0000 </r>
       <r>    6.5424    0.0000 </r>
       <r>    6.5529    0.0000 </r>
       <r>    6.6139    0.0000 </r>
       <r>    6.7404    0.0000 </r>
      </set>
      <set comment="kpoint 18">
       <r>  -19.7310    1.0000 </r>
       <r>  -19.6819    1.0000 </r>
       <r>  -19.6727    1.0000 </r>
       <r>  -19.6629    1.0000 </r>
       <r>  -12.5860    1.0000 </r>
       <r>  -12.5177    1.0000 </r>
       <r>  -12.5168    1.0000 </r>
       <r>  -12.4869    1.0000 </r>
       <r>   -6.9985    1.0000 </r>
       <r>   -6.9219    1.0000 </r>
       <r>   -6.9206    1.0000 </r>
       <r>   -6.9124    1.0000 </r>
       <r>   -6.7418    1.0000 </r>
       <r>   -6.6136    1.0000 </r>
       <r>   -6.6068    1.0000 </r>
       <r>   -6.2516    1.0000 </r>
       <r>   -6.2429    1.0000 </r>
       <r>   -6.1802    1.0000 </r>
       <r>   -6.1800    1.0000 </r>
       <r>   -6.0883    1.0000 </r>
       <r>   -1.3928    1.0000 </r>
       <r>   -1.1328    1.0000 </r>
       <r>   -1.1309    1.0000 </r>
       <r>   -0.9126    1.0000 </r>
       <r>   -0.8688    1.0000 </r>
       <r>   -0.8652    1.0000 </r>
       <r>   -0.7985    1.0000 </r>
       <r>   -0.5843    1.0000 </r>
       <r>   -0.5842    1.0000 </r>
       <r>   -0.5388    1.0000 </r>
       <r>   -0.5385    1.0000 </r>
       <r>   -0.4703    1.0000 </r>
       <r>    5.6850    0.0000 </r>
       <r>    5.7945    0.0000 </r>
       <r>    5.8528    0.0000 </r>
       <r>    6.3871    0.0000 </r>
       <r>    6.3957    0.0000 </r>
       <r>    6.6117    0.0000 </r>
       <r>    6.6161    0.0000 </r>
       <r>    6.7654    0.0000 </r>
      </set>
      <set comment="kpoint 19">
       <r>  -19.7195    1.0000 </r>
       <r>  -19.6949    1.0000 </r>
       <r>  -19.6790    1.0000 </r>
       <r>  -19.6539    1.0000 </r>
       <r>  -12.5856    1.0000 </r>
       <r>  -12.5408    1.0000 </r>
       <r>  -12.5180    1.0000 </r>
       <r>  -12.4712    1.0000 </r>
       <r>   -7.0114    1.0000 </r>
       <r>   -6.9924    1.0000 </r>
       <r>   -6.9184    1.0000 </r>
       <r>   -6.8775    1.0000 </r>
       <r>   -6.8011    1.0000 </r>
       <r>   -6.6995    1.0000 </r>
       <r>   -6.5362    1.0000 </r>
       <r>   -6.2028    1.0000 </r>
       <r>   -6.1710    1.0000 </r>
       <r>   -6.1667    1.0000 </r>
       <r>   -6.1468    1.0000 </r>
       <r>   -6.1112    1.0000 </r>
       <r>   -1.4595    1.0000 </r>
       <r>   -1.1960    1.0000 </r>
       <r>   -1.0816    1.0000 </r>
       <r>   -0.8718    1.0000 </r>
       <r>   -0.8366    1.0000 </r>
       <r>   -0.7830    1.0000 </r>
       <r>   -0.7476    1.0000 </r>
       <r>   -0.6293    1.0000 </r>
       <r>   -0.5965    1.0000 </r>
       <r>   -0.5399    1.0000 </r>
       <r>   -0.5244    1.0000 </r>
       <r>   -0.4942    1.0000 </r>
       <r>    5.6942    0.0000 </r>
       <r>    5.7783    0.0000 </r>
       <r>    6.0129    0.0000 </r>
       <r>    6.0162    0.0000 </r>
       <r>    6.1559    0.0000 </r>
       <r>    6.3933    0.0000 </r>
       <r>    6.7471    0.0000 </r>
       <r>    7.0430    0.0000 </r>
      </set>
      <set comment="kpoint 20">
       <r>  -19.7109    1.0000 </r>
       <r>  -19.7076    1.0000 </r>
       <r>  -19.6835    1.0000 </r>
       <r>  -19.6466    1.0000 </r>
       <r>  -12.5709    1.0000 </r>
       <r>  -12.5559    1.0000 </r>
       <r>  -12.5180    1.0000 </r>
       <r>  -12.4617    1.0000 </r>
       <r>   -6.9954    1.0000 </r>
       <r>   -6.9738    1.0000 </r>
       <r>   -6.8888    1.0000 </r>
       <r>   -6.8453    1.0000 </r>
       <r>   -6.8035    1.0000 </r>
       <r>   -6.7441    1.0000 </r>
       <r>   -6.4502    1.0000 </r>
       <r>   -6.3048    1.0000 </r>
       <r>   -6.1977    1.0000 </r>
       <r>   -6.1837    1.0000 </r>
       <r>   -6.1528    1.0000 </r>
       <r>   -6.1166    1.0000 </r>
       <r>   -1.3879    1.0000 </r>
       <r>   -1.2199    1.0000 </r>
       <r>   -1.0423    1.0000 </r>
       <r>   -0.9275    1.0000 </r>
       <r>   -0.9140    1.0000 </r>
       <r>   -0.7456    1.0000 </r>
       <r>   -0.6942    1.0000 </r>
       <r>   -0.6677    1.0000 </r>
       <r>   -0.6106    1.0000 </r>
       <r>   -0.5702    1.0000 </r>
       <r>   -0.5494    1.0000 </r>
       <r>   -0.5058    1.0000 </r>
       <r>    5.8454    0.0000 </r>
       <r>    6.0029    0.0000 </r>
       <r>    6.0109    0.0000 </r>
       <r>    6.0199    0.0000 </r>
       <r>    6.2163    0.0000 </r>
       <r>    6.2953    0.0000 </r>
       <r>    6.7534    0.0000 </r>
       <r>    7.2030    0.0000 </r>
      </set>
      <set comment="kpoint 21">
       <r>  -19.7196    1.0000 </r>
       <r>  -19.6912    1.0000 </r>
       <r>  -19.6820    1.0000 </r>
       <r>  -19.6531    1.0000 </r>
       <r>  -12.5928    1.0000 </r>
       <r>  -12.5322    1.0000 </r>
       <r>  -12.5313    1.0000 </r>
       <r>  -12.4680    1.0000 </r>
       <r>   -7.0330    1.0000 </r>
       <r>   -7.0329    1.0000 </r>
       <r>   -6.9223    1.0000 </r>
       <r>   -6.9129    1.0000 </r>
       <r>   -6.8085    1.0000 </r>
       <r>   -6.6344    1.0000 </r>
       <r>   -6.6275    1.0000 </r>
       <r>   -6.1599    1.0000 </r>
       <r>   -6.1596    1.0000 </r>
       <r>   -6.1228    1.0000 </r>
       <r>   -6.1137    1.0000 </r>
       <r>   -6.0758    1.0000 </r>
       <r>   -1.5317    1.0000 </r>
       <r>   -1.1515    1.0000 </r>
       <r>   -1.1487    1.0000 </r>
       <r>   -0.8187    1.0000 </r>
       <r>   -0.8186    1.0000 </r>
       <r>   -0.7391    1.0000 </r>
       <r>   -0.7359    1.0000 </r>
       <r>   -0.6184    1.0000 </r>
       <r>   -0.6183    1.0000 </r>
       <r>   -0.5340    1.0000 </r>
       <r>   -0.5328    1.0000 </r>
       <r>   -0.4434    1.0000 </r>
       <r>    5.5408    0.0000 </r>
       <r>    5.6176    0.0000 </r>
       <r>    6.0039    0.0000 </r>
       <r>    6.0111    0.0000 </r>
       <r>    6.0131    0.0000 </r>
       <r>    6.5200    0.0000 </r>
       <r>    6.5233    0.0000 </r>
       <r>    7.1414    0.0000 </r>
      </set>
      <set comment="kpoint 22">
       <r>  -19.7893    1.0000 </r>
       <r>  -19.7264    1.0000 </r>
       <r>  -19.6413    1.0000 </r>
       <r>  -19.6037    1.0000 </r>
       <r>  -12.5884    1.0000 </r>
       <r>  -12.5560    1.0000 </r>
       <r>  -12.4525    1.0000 </r>
       <r>  -12.4073    1.0000 </r>
       <r>   -6.9893    1.0000 </r>
       <r>   -6.9893    1.0000 </r>
       <r>   -6.8567    1.0000 </r>
       <r>   -6.8567    1.0000 </r>
       <r>   -6.7655    1.0000 </r>
       <r>   -6.6687    1.0000 </r>
       <r>   -6.3495    1.0000 </r>
       <r>   -6.2814    1.0000 </r>
       <r>   -6.2814    1.0000 </r>
       <r>   -6.2403    1.0000 </r>
       <r>   -6.1728    1.0000 </r>
       <r>   -6.1728    1.0000 </r>
       <r>   -1.4419    1.0000 </r>
       <r>   -1.3236    1.0000 </r>
       <r>   -1.3236    1.0000 </r>
       <r>   -1.2762    1.0000 </r>
       <r>   -0.9505    1.0000 </r>
       <r>   -0.9505    1.0000 </r>
       <r>   -0.6897    1.0000 </r>
       <r>   -0.5961    1.0000 </r>
       <r>   -0.5961    1.0000 </r>
       <r>   -0.5303    1.0000 </r>
       <r>   -0.4154    1.0000 </r>
       <r>   -0.4154    1.0000 </r>
       <r>    5.0350    0.0000 </r>
       <r>    5.0796    0.0000 </r>
       <r>    5.2501    0.0000 </r>
       <r>    5.8643    0.0000 </r>
       <r>    6.1018    0.0000 </r>
       <r>    6.1689    0.0000 </r>
       <r>    6.8920    0.0000 </r>
       <r>    7.4999    0.0000 </r>
      </set>
      <set comment="kpoint 23">
       <r>  -19.7874    1.0000 </r>
       <r>  -19.7176    1.0000 </r>
       <r>  -19.6413    1.0000 </r>
       <r>  -19.6136    1.0000 </r>
       <r>  -12.5821    1.0000 </r>
       <r>  -12.5561    1.0000 </r>
       <r>  -12.4547    1.0000 </r>
       <r>  -12.4210    1.0000 </r>
       <r>   -6.9465    1.0000 </r>
       <r>   -6.9321    1.0000 </r>
       <r>   -6.8548    1.0000 </r>
       <r>   -6.8532    1.0000 </r>
       <r>   -6.8030    1.0000 </r>
       <r>   -6.6239    1.0000 </r>
       <r>   -6.3248    1.0000 </r>
       <r>   -6.3192    1.0000 </r>
       <r>   -6.3153    1.0000 </r>
       <r>   -6.2814    1.0000 </r>
       <r>   -6.2071    1.0000 </r>
       <r>   -6.1935    1.0000 </r>
       <r>   -1.4321    1.0000 </r>
       <r>   -1.2848    1.0000 </r>
       <r>   -1.2464    1.0000 </r>
       <r>   -1.1015    1.0000 </r>
       <r>   -1.0397    1.0000 </r>
       <r>   -0.9875    1.0000 </r>
       <r>   -0.7415    1.0000 </r>
       <r>   -0.6434    1.0000 </r>
       <r>   -0.5846    1.0000 </r>
       <r>   -0.5375    1.0000 </r>
       <r>   -0.4298    1.0000 </r>
       <r>   -0.4290    1.0000 </r>
       <r>    5.0900    0.0000 </r>
       <r>    5.1948    0.0000 </r>
       <r>    5.2087    0.0000 </r>
       <r>    6.0427    0.0000 </r>
       <r>    6.3428    0.0000 </r>
       <r>    6.4853    0.0000 </r>
       <r>    7.0199    0.0000 </r>
       <r>    7.1645    0.0000 </r>
      </set>
      <set comment="kpoint 24">
       <r>  -19.7736    1.0000 </r>
       <r>  -19.7011    1.0000 </r>
       <r>  -19.6504    1.0000 </r>
       <r>  -19.6330    1.0000 </r>
       <r>  -12.5594    1.0000 </r>
       <r>  -12.5584    1.0000 </r>
       <r>  -12.4691    1.0000 </r>
       <r>  -12.4489    1.0000 </r>
       <r>   -6.8566    1.0000 </r>
       <r>   -6.8549    1.0000 </r>
       <r>   -6.8183    1.0000 </r>
       <r>   -6.8061    1.0000 </r>
       <r>   -6.7973    1.0000 </r>
       <r>   -6.5920    1.0000 </r>
       <r>   -6.4157    1.0000 </r>
       <r>   -6.4114    1.0000 </r>
       <r>   -6.3280    1.0000 </r>
       <r>   -6.3152    1.0000 </r>
       <r>   -6.2658    1.0000 </r>
       <r>   -6.2613    1.0000 </r>
       <r>   -1.3134    1.0000 </r>
       <r>   -1.1834    1.0000 </r>
       <r>   -1.1247    1.0000 </r>
       <r>   -1.0986    1.0000 </r>
       <r>   -0.9912    1.0000 </r>
       <r>   -0.8996    1.0000 </r>
       <r>   -0.7559    1.0000 </r>
       <r>   -0.7518    1.0000 </r>
       <r>   -0.7215    1.0000 </r>
       <r>   -0.5444    1.0000 </r>
       <r>   -0.4843    1.0000 </r>
       <r>   -0.4580    1.0000 </r>
       <r>    5.3518    0.0000 </r>
       <r>    5.5048    0.0000 </r>
       <r>    5.6097    0.0000 </r>
       <r>    6.3870    0.0000 </r>
       <r>    6.6396    0.0000 </r>
       <r>    6.8938    0.0000 </r>
       <r>    6.8994    0.0000 </r>
       <r>    7.0840    0.0000 </r>
      </set>
      <set comment="kpoint 25">
       <r>  -19.7506    1.0000 </r>
       <r>  -19.6791    1.0000 </r>
       <r>  -19.6680    1.0000 </r>
       <r>  -19.6585    1.0000 </r>
       <r>  -12.5599    1.0000 </r>
       <r>  -12.5221    1.0000 </r>
       <r>  -12.4889    1.0000 </r>
       <r>  -12.4855    1.0000 </r>
       <r>   -6.8999    1.0000 </r>
       <r>   -6.7311    1.0000 </r>
       <r>   -6.7198    1.0000 </r>
       <r>   -6.6877    1.0000 </r>
       <r>   -6.6787    1.0000 </r>
       <r>   -6.5598    1.0000 </r>
       <r>   -6.5407    1.0000 </r>
       <r>   -6.5289    1.0000 </r>
       <r>   -6.4605    1.0000 </r>
       <r>   -6.3859    1.0000 </r>
       <r>   -6.3748    1.0000 </r>
       <r>   -6.2177    1.0000 </r>
       <r>   -1.1747    1.0000 </r>
       <r>   -1.0287    1.0000 </r>
       <r>   -1.0237    1.0000 </r>
       <r>   -0.9759    1.0000 </r>
       <r>   -0.9561    1.0000 </r>
       <r>   -0.9421    1.0000 </r>
       <r>   -0.9010    1.0000 </r>
       <r>   -0.8033    1.0000 </r>
       <r>   -0.7888    1.0000 </r>
       <r>   -0.5621    1.0000 </r>
       <r>   -0.5431    1.0000 </r>
       <r>   -0.4914    1.0000 </r>
       <r>    5.6247    0.0000 </r>
       <r>    6.0666    0.0000 </r>
       <r>    6.2832    0.0000 </r>
       <r>    6.8375    0.0000 </r>
       <r>    6.8674    0.0000 </r>
       <r>    6.9684    0.0000 </r>
       <r>    6.9788    0.0000 </r>
       <r>    7.1687    0.0000 </r>
      </set>
      <set comment="kpoint 26">
       <r>  -19.7226    1.0000 </r>
       <r>  -19.6960    1.0000 </r>
       <r>  -19.6820    1.0000 </r>
       <r>  -19.6549    1.0000 </r>
       <r>  -12.5501    1.0000 </r>
       <r>  -12.5213    1.0000 </r>
       <r>  -12.5106    1.0000 </r>
       <r>  -12.4820    1.0000 </r>
       <r>   -6.9140    1.0000 </r>
       <r>   -6.6837    1.0000 </r>
       <r>   -6.6418    1.0000 </r>
       <r>   -6.6104    1.0000 </r>
       <r>   -6.5940    1.0000 </r>
       <r>   -6.5805    1.0000 </r>
       <r>   -6.5639    1.0000 </r>
       <r>   -6.5408    1.0000 </r>
       <r>   -6.5073    1.0000 </r>
       <r>   -6.5019    1.0000 </r>
       <r>   -6.4909    1.0000 </r>
       <r>   -6.1792    1.0000 </r>
       <r>   -1.1111    1.0000 </r>
       <r>   -1.0644    1.0000 </r>
       <r>   -1.0615    1.0000 </r>
       <r>   -0.8932    1.0000 </r>
       <r>   -0.8842    1.0000 </r>
       <r>   -0.8755    1.0000 </r>
       <r>   -0.8185    1.0000 </r>
       <r>   -0.8112    1.0000 </r>
       <r>   -0.7998    1.0000 </r>
       <r>   -0.6571    1.0000 </r>
       <r>   -0.6472    1.0000 </r>
       <r>   -0.5205    1.0000 </r>
       <r>    5.8734    0.0000 </r>
       <r>    6.4777    0.0000 </r>
       <r>    6.7071    0.0000 </r>
       <r>    7.0458    0.0000 </r>
       <r>    7.1213    0.0000 </r>
       <r>    7.1376    0.0000 </r>
       <r>    7.1610    0.0000 </r>
       <r>    7.2705    0.0000 </r>
      </set>
      <set comment="kpoint 27">
       <r>  -19.7283    1.0000 </r>
       <r>  -19.7021    1.0000 </r>
       <r>  -19.6940    1.0000 </r>
       <r>  -19.6321    1.0000 </r>
       <r>  -12.5469    1.0000 </r>
       <r>  -12.5337    1.0000 </r>
       <r>  -12.5268    1.0000 </r>
       <r>  -12.4470    1.0000 </r>
       <r>   -6.8833    1.0000 </r>
       <r>   -6.8167    1.0000 </r>
       <r>   -6.7100    1.0000 </r>
       <r>   -6.6974    1.0000 </r>
       <r>   -6.6742    1.0000 </r>
       <r>   -6.6282    1.0000 </r>
       <r>   -6.5016    1.0000 </r>
       <r>   -6.4887    1.0000 </r>
       <r>   -6.4307    1.0000 </r>
       <r>   -6.4200    1.0000 </r>
       <r>   -6.3675    1.0000 </r>
       <r>   -6.1609    1.0000 </r>
       <r>   -1.2033    1.0000 </r>
       <r>   -1.1558    1.0000 </r>
       <r>   -1.0602    1.0000 </r>
       <r>   -1.0073    1.0000 </r>
       <r>   -0.8807    1.0000 </r>
       <r>   -0.8758    1.0000 </r>
       <r>   -0.7872    1.0000 </r>
       <r>   -0.7323    1.0000 </r>
       <r>   -0.6697    1.0000 </r>
       <r>   -0.6685    1.0000 </r>
       <r>   -0.6348    1.0000 </r>
       <r>   -0.5350    1.0000 </r>
       <r>    5.9631    0.0000 </r>
       <r>    6.4435    0.0000 </r>
       <r>    6.4731    0.0000 </r>
       <r>    6.4799    0.0000 </r>
       <r>    6.5367    0.0000 </r>
       <r>    6.6409    0.0000 </r>
       <r>    6.7971    0.0000 </r>
       <r>    6.8925    0.0000 </r>
      </set>
      <set comment="kpoint 28">
       <r>  -19.7574    1.0000 </r>
       <r>  -19.7177    1.0000 </r>
       <r>  -19.6690    1.0000 </r>
       <r>  -19.6142    1.0000 </r>
       <r>  -12.5583    1.0000 </r>
       <r>  -12.5576    1.0000 </r>
       <r>  -12.4955    1.0000 </r>
       <r>  -12.4218    1.0000 </r>
       <r>   -6.9200    1.0000 </r>
       <r>   -6.8443    1.0000 </r>
       <r>   -6.8181    1.0000 </r>
       <r>   -6.7669    1.0000 </r>
       <r>   -6.7400    1.0000 </r>
       <r>   -6.7374    1.0000 </r>
       <r>   -6.4462    1.0000 </r>
       <r>   -6.3790    1.0000 </r>
       <r>   -6.3084    1.0000 </r>
       <r>   -6.3005    1.0000 </r>
       <r>   -6.2883    1.0000 </r>
       <r>   -6.1651    1.0000 </r>
       <r>   -1.3023    1.0000 </r>
       <r>   -1.2786    1.0000 </r>
       <r>   -1.1703    1.0000 </r>
       <r>   -1.0982    1.0000 </r>
       <r>   -0.9955    1.0000 </r>
       <r>   -0.8176    1.0000 </r>
       <r>   -0.8145    1.0000 </r>
       <r>   -0.6877    1.0000 </r>
       <r>   -0.5486    1.0000 </r>
       <r>   -0.5446    1.0000 </r>
       <r>   -0.5439    1.0000 </r>
       <r>   -0.5390    1.0000 </r>
       <r>    5.7479    0.0000 </r>
       <r>    5.8646    0.0000 </r>
       <r>    5.9476    0.0000 </r>
       <r>    5.9517    0.0000 </r>
       <r>    6.1502    0.0000 </r>
       <r>    6.1995    0.0000 </r>
       <r>    6.6426    0.0000 </r>
       <r>    7.1983    0.0000 </r>
      </set>
      <set comment="kpoint 29">
       <r>  -19.7789    1.0000 </r>
       <r>  -19.7264    1.0000 </r>
       <r>  -19.6508    1.0000 </r>
       <r>  -19.6040    1.0000 </r>
       <r>  -12.5782    1.0000 </r>
       <r>  -12.5588    1.0000 </r>
       <r>  -12.4672    1.0000 </r>
       <r>  -12.4082    1.0000 </r>
       <r>   -6.9801    1.0000 </r>
       <r>   -6.9602    1.0000 </r>
       <r>   -6.8252    1.0000 </r>
       <r>   -6.8165    1.0000 </r>
       <r>   -6.7492    1.0000 </r>
       <r>   -6.7331    1.0000 </r>
       <r>   -6.3921    1.0000 </r>
       <r>   -6.3039    1.0000 </r>
       <r>   -6.2723    1.0000 </r>
       <r>   -6.2161    1.0000 </r>
       <r>   -6.2099    1.0000 </r>
       <r>   -6.1911    1.0000 </r>
       <r>   -1.3654    1.0000 </r>
       <r>   -1.3439    1.0000 </r>
       <r>   -1.3349    1.0000 </r>
       <r>   -1.2365    1.0000 </r>
       <r>   -0.9449    1.0000 </r>
       <r>   -0.8896    1.0000 </r>
       <r>   -0.6654    1.0000 </r>
       <r>   -0.6152    1.0000 </r>
       <r>   -0.5922    1.0000 </r>
       <r>   -0.5646    1.0000 </r>
       <r>   -0.4550    1.0000 </r>
       <r>   -0.4546    1.0000 </r>
       <r>    5.2738    0.0000 </r>
       <r>    5.3393    0.0000 </r>
       <r>    5.5016    0.0000 </r>
       <r>    5.8912    0.0000 </r>
       <r>    5.9885    0.0000 </r>
       <r>    6.0258    0.0000 </r>
       <r>    6.7398    0.0000 </r>
       <r>    7.4715    0.0000 </r>
      </set>
      <set comment="kpoint 30">
       <r>  -19.7784    1.0000 </r>
       <r>  -19.7167    1.0000 </r>
       <r>  -19.6510    1.0000 </r>
       <r>  -19.6130    1.0000 </r>
       <r>  -12.5729    1.0000 </r>
       <r>  -12.5589    1.0000 </r>
       <r>  -12.4699    1.0000 </r>
       <r>  -12.4204    1.0000 </r>
       <r>   -6.9674    1.0000 </r>
       <r>   -6.8806    1.0000 </r>
       <r>   -6.8754    1.0000 </r>
       <r>   -6.7951    1.0000 </r>
       <r>   -6.7647    1.0000 </r>
       <r>   -6.6909    1.0000 </r>
       <r>   -6.3957    1.0000 </r>
       <r>   -6.3130    1.0000 </r>
       <r>   -6.3086    1.0000 </r>
       <r>   -6.2631    1.0000 </r>
       <r>   -6.2576    1.0000 </r>
       <r>   -6.1600    1.0000 </r>
       <r>   -1.3441    1.0000 </r>
       <r>   -1.3198    1.0000 </r>
       <r>   -1.2621    1.0000 </r>
       <r>   -1.1005    1.0000 </r>
       <r>   -0.9969    1.0000 </r>
       <r>   -0.9575    1.0000 </r>
       <r>   -0.6745    1.0000 </r>
       <r>   -0.6372    1.0000 </r>
       <r>   -0.6315    1.0000 </r>
       <r>   -0.5768    1.0000 </r>
       <r>   -0.4657    1.0000 </r>
       <r>   -0.4412    1.0000 </r>
       <r>    5.2593    0.0000 </r>
       <r>    5.3715    0.0000 </r>
       <r>    5.5084    0.0000 </r>
       <r>    6.0217    0.0000 </r>
       <r>    6.2339    0.0000 </r>
       <r>    6.2724    0.0000 </r>
       <r>    6.9156    0.0000 </r>
       <r>    7.2184    0.0000 </r>
      </set>
      <set comment="kpoint 31">
       <r>  -19.7671    1.0000 </r>
       <r>  -19.6998    1.0000 </r>
       <r>  -19.6591    1.0000 </r>
       <r>  -19.6310    1.0000 </r>
       <r>  -12.5624    1.0000 </r>
       <r>  -12.5516    1.0000 </r>
       <r>  -12.4842    1.0000 </r>
       <r>  -12.4460    1.0000 </r>
       <r>   -6.9135    1.0000 </r>
       <r>   -6.8765    1.0000 </r>
       <r>   -6.8553    1.0000 </r>
[...]
       <r>   -0.9621    1.0000 </r>
       <r>   -0.9107    1.0000 </r>
       <r>   -0.8473    1.0000 </r>
       <r>   -0.7095    1.0000 </r>
       <r>   -0.5898    1.0000 </r>
       <r>   -0.5470    1.0000 </r>
       <r>   -0.5152    1.0000 </r>
       <r>   -0.4916    1.0000 </r>
       <r>    5.5009    0.0000 </r>
       <r>    5.7553    0.0000 </r>
       <r>    5.9888    0.0000 </r>
       <r>    6.1431    0.0000 </r>
       <r>    6.3517    0.0000 </r>
       <r>    6.4423    0.0000 </r>
       <r>    6.8254    0.0000 </r>
       <r>    6.9818    0.0000 </r>
      </set>
      <set comment="kpoint 92">
       <r>  -19.7546    1.0000 </r>
       <r>  -19.6902    1.0000 </r>
       <r>  -19.6700    1.0000 </r>
       <r>  -19.6395    1.0000 </r>
       <r>  -12.5687    1.0000 </r>
       <r>  -12.5337    1.0000 </r>
       <r>  -12.5045    1.0000 </r>
       <r>  -12.4584    1.0000 </r>
       <r>   -6.9231    1.0000 </r>
       <r>   -6.9139    1.0000 </r>
       <r>   -6.8902    1.0000 </r>
       <r>   -6.7315    1.0000 </r>
       <r>   -6.6213    1.0000 </r>
       <r>   -6.5940    1.0000 </r>
       <r>   -6.5772    1.0000 </r>
       <r>   -6.5013    1.0000 </r>
       <r>   -6.3524    1.0000 </r>
       <r>   -6.2651    1.0000 </r>
       <r>   -6.2224    1.0000 </r>
       <r>   -6.1242    1.0000 </r>
       <r>   -1.1424    1.0000 </r>
       <r>   -1.1380    1.0000 </r>
       <r>   -1.1216    1.0000 </r>
       <r>   -1.1186    1.0000 </r>
       <r>   -1.0263    1.0000 </r>
       <r>   -0.9504    1.0000 </r>
       <r>   -0.7739    1.0000 </r>
       <r>   -0.7269    1.0000 </r>
       <r>   -0.5694    1.0000 </r>
       <r>   -0.5312    1.0000 </r>
       <r>   -0.5243    1.0000 </r>
       <r>   -0.5049    1.0000 </r>
       <r>    5.4981    0.0000 </r>
       <r>    5.9873    0.0000 </r>
       <r>    6.0073    0.0000 </r>
       <r>    6.4704    0.0000 </r>
       <r>    6.5338    0.0000 </r>
       <r>    6.6622    0.0000 </r>
       <r>    6.7193    0.0000 </r>
       <r>    6.7376    0.0000 </r>
      </set>
      <set comment="kpoint 93">
       <r>  -19.7726    1.0000 </r>
       <r>  -19.7228    1.0000 </r>
       <r>  -19.6562    1.0000 </r>
       <r>  -19.6077    1.0000 </r>
       <r>  -12.5712    1.0000 </r>
       <r>  -12.5599    1.0000 </r>
       <r>  -12.4771    1.0000 </r>
       <r>  -12.4130    1.0000 </r>
       <r>   -6.9805    1.0000 </r>
       <r>   -6.8975    1.0000 </r>
       <r>   -6.8617    1.0000 </r>
       <r>   -6.7716    1.0000 </r>
       <r>   -6.7568    1.0000 </r>
       <r>   -6.7252    1.0000 </r>
       <r>   -6.4256    1.0000 </r>
       <r>   -6.3259    1.0000 </r>
       <r>   -6.3124    1.0000 </r>
       <r>   -6.2533    1.0000 </r>
       <r>   -6.1879    1.0000 </r>
       <r>   -6.1704    1.0000 </r>
       <r>   -1.3543    1.0000 </r>
       <r>   -1.3033    1.0000 </r>
       <r>   -1.2854    1.0000 </r>
       <r>   -1.1803    1.0000 </r>
       <r>   -0.9609    1.0000 </r>
       <r>   -0.8926    1.0000 </r>
       <r>   -0.7445    1.0000 </r>
       <r>   -0.6205    1.0000 </r>
       <r>   -0.5647    1.0000 </r>
       <r>   -0.5627    1.0000 </r>
       <r>   -0.4882    1.0000 </r>
       <r>   -0.4538    1.0000 </r>
       <r>    5.3461    0.0000 </r>
       <r>    5.5387    0.0000 </r>
       <r>    5.6638    0.0000 </r>
       <r>    5.9329    0.0000 </r>
       <r>    6.0210    0.0000 </r>
       <r>    6.0769    0.0000 </r>
       <r>    6.7295    0.0000 </r>
       <r>    7.3735    0.0000 </r>
      </set>
     </set>
    </set>
   </array>
  </eigenvalues>
  <separator name="orbital magnetization" >
   <v name="MAGDIPOLOUT">      0.00000000      0.00000000      0.00000000</v>
  </separator>
  <dos>
   <i name="efermi">     -0.31827145 </i>
   <total>
    <array>
     <dimension dim="1">gridpoints</dimension>
     <dimension dim="2">spin</dimension>
     <field>energy</field>
     <field>total</field>
     <field>integrated</field>
     <set>
      <set comment="spin 1">
       <r>   -21.1613     0.0000     0.0000 </r>
       <r>   -21.0613     0.0000     0.0000 </r>
       <r>   -20.9612     0.0000     0.0000 </r>
       <r>   -20.8611     0.0000     0.0000 </r>
       <r>   -20.7610     0.0000     0.0000 </r>
       <r>   -20.6609     0.0000     0.0000 </r>
       <r>   -20.5608     0.0000     0.0000 </r>
       <r>   -20.4607     0.0000     0.0000 </r>
       <r>   -20.3607     0.0000     0.0000 </r>
       <r>   -20.2606     0.0000     0.0000 </r>
       <r>   -20.1605     0.0000     0.0000 </r>
       <r>   -20.0604     0.0000     0.0000 </r>
       <r>   -19.9603     0.0000     0.0000 </r>
       <r>   -19.8602     0.0000     0.0000 </r>
       <r>   -19.7601     4.5064     0.4510 </r>
       <r>   -19.6600    49.0594     5.8667 </r>
       <r>   -19.5600     9.9898     8.0000 </r>
       <r>   -19.4599     0.0000     8.0000 </r>
       <r>   -19.3598     0.0000     8.0000 </r>
       <r>   -19.2597     0.0000     8.0000 </r>
       <r>   -19.1596     0.0000     8.0000 </r>
       <r>   -19.0595     0.0000     8.0000 </r>
       <r>   -18.9594     0.0000     8.0000 </r>
       <r>   -18.8594     0.0000     8.0000 </r>
       <r>   -18.7593     0.0000     8.0000 </r>
       <r>   -18.6592     0.0000     8.0000 </r>
       <r>   -18.5591     0.0000     8.0000 </r>
       <r>   -18.4590     0.0000     8.0000 </r>
       <r>   -18.3589     0.0000     8.0000 </r>
       <r>   -18.2588     0.0000     8.0000 </r>
       <r>   -18.1587     0.0000     8.0000 </r>
       <r>   -18.0587     0.0000     8.0000 </r>
       <r>   -17.9586     0.0000     8.0000 </r>
       <r>   -17.8585     0.0000     8.0000 </r>
       <r>   -17.7584     0.0000     8.0000 </r>
       <r>   -17.6583     0.0000     8.0000 </r>
       <r>   -17.5582     0.0000     8.0000 </r>
       <r>   -17.4581     0.0000     8.0000 </r>
       <r>   -17.3580     0.0000     8.0000 </r>
       <r>   -17.2580     0.0000     8.0000 </r>
       <r>   -17.1579     0.0000     8.0000 </r>
       <r>   -17.0578     0.0000     8.0000 </r>
       <r>   -16.9577     0.0000     8.0000 </r>
       <r>   -16.8576     0.0000     8.0000 </r>
       <r>   -16.7575     0.0000     8.0000 </r>
       <r>   -16.6574     0.0000     8.0000 </r>
       <r>   -16.5574     0.0000     8.0000 </r>
       <r>   -16.4573     0.0000     8.0000 </r>
       <r>   -16.3572     0.0000     8.0000 </r>
       <r>   -16.2571     0.0000     8.0000 </r>
       <r>   -16.1570     0.0000     8.0000 </r>
       <r>   -16.0569     0.0000     8.0000 </r>
       <r>   -15.9568     0.0000     8.0000 </r>
       <r>   -15.8567     0.0000     8.0000 </r>
       <r>   -15.7567     0.0000     8.0000 </r>
       <r>   -15.6566     0.0000     8.0000 </r>
       <r>   -15.5565     0.0000     8.0000 </r>
       <r>   -15.4564     0.0000     8.0000 </r>
       <r>   -15.3563     0.0000     8.0000 </r>
       <r>   -15.2562     0.0000     8.0000 </r>
       <r>   -15.1561     0.0000     8.0000 </r>
       <r>   -15.0561     0.0000     8.0000 </r>
       <r>   -14.9560     0.0000     8.0000 </r>
       <r>   -14.8559     0.0000     8.0000 </r>
       <r>   -14.7558     0.0000     8.0000 </r>
       <r>   -14.6557     0.0000     8.0000 </r>
       <r>   -14.5556     0.0000     8.0000 </r>
       <r>   -14.4555     0.0000     8.0000 </r>
       <r>   -14.3554     0.0000     8.0000 </r>
       <r>   -14.2554     0.0000     8.0000 </r>
       <r>   -14.1553     0.0000     8.0000 </r>
       <r>   -14.0552     0.0000     8.0000 </r>
       <r>   -13.9551     0.0000     8.0000 </r>
       <r>   -13.8550     0.0000     8.0000 </r>
       <r>   -13.7549     0.0000     8.0000 </r>
       <r>   -13.6548     0.0000     8.0000 </r>
       <r>   -13.5548     0.0000     8.0000 </r>
       <r>   -13.4547     0.0000     8.0000 </r>
       <r>   -13.3546     0.0000     8.0000 </r>
       <r>   -13.2545     0.0000     8.0000 </r>
       <r>   -13.1544     0.0000     8.0000 </r>
       <r>   -13.0543     0.0000     8.0000 </r>
       <r>   -12.9542     0.0000     8.0000 </r>
       <r>   -12.8541     0.0000     8.0000 </r>
       <r>   -12.7541     0.0000     8.0000 </r>
       <r>   -12.6540     0.0000     8.0000 </r>
       <r>   -12.5539    21.3803    10.1399 </r>
       <r>   -12.4538    35.5562    15.0402 </r>
       <r>   -12.3537     4.9949    16.0000 </r>
       <r>   -12.2536     0.0000    16.0000 </r>
       <r>   -12.1535     0.0000    16.0000 </r>
       <r>   -12.0534     0.0000    16.0000 </r>
       <r>   -11.9534     0.0000    16.0000 </r>
       <r>   -11.8533     0.0000    16.0000 </r>
       <r>   -11.7532     0.0000    16.0000 </r>
       <r>   -11.6531     0.0000    16.0000 </r>
       <r>   -11.5530     0.0000    16.0000 </r>
       <r>   -11.4529     0.0000    16.0000 </r>
       <r>   -11.3528     0.0000    16.0000 </r>
       <r>   -11.2528     0.0000    16.0000 </r>
       <r>   -11.1527     0.0000    16.0000 </r>
       <r>   -11.0526     0.0000    16.0000 </r>
       <r>   -10.9525     0.0000    16.0000 </r>
       <r>   -10.8524     0.0000    16.0000 </r>
       <r>   -10.7523     0.0000    16.0000 </r>
       <r>   -10.6522     0.0000    16.0000 </r>
       <r>   -10.5521     0.0000    16.0000 </r>
       <r>   -10.4521     0.0000    16.0000 </r>
       <r>   -10.3520     0.0000    16.0000 </r>
       <r>   -10.2519     0.0000    16.0000 </r>
       <r>   -10.1518     0.0000    16.0000 </r>
       <r>   -10.0517     0.0000    16.0000 </r>
       <r>    -9.9516     0.0000    16.0000 </r>
       <r>    -9.8515     0.0000    16.0000 </r>
       <r>    -9.7515     0.0000    16.0000 </r>
       <r>    -9.6514     0.0000    16.0000 </r>
       <r>    -9.5513     0.0000    16.0000 </r>
       <r>    -9.4512     0.0000    16.0000 </r>
       <r>    -9.3511     0.0000    16.0000 </r>
       <r>    -9.2510     0.0000    16.0000 </r>
       <r>    -9.1509     0.0000    16.0000 </r>
       <r>    -9.0508     0.0000    16.0000 </r>
       <r>    -8.9508     0.0000    16.0000 </r>
       <r>    -8.8507     0.0000    16.0000 </r>
       <r>    -8.7506     0.0000    16.0000 </r>
       <r>    -8.6505     0.0000    16.0000 </r>
       <r>    -8.5504     0.0000    16.0000 </r>
       <r>    -8.4503     0.0000    16.0000 </r>
       <r>    -8.3502     0.0000    16.0000 </r>
       <r>    -8.2502     0.0000    16.0000 </r>
       <r>    -8.1501     0.0000    16.0000 </r>
       <r>    -8.0500     0.0000    16.0000 </r>
       <r>    -7.9499     0.0000    16.0000 </r>
       <r>    -7.8498     0.0000    16.0000 </r>
       <r>    -7.7497     0.0000    16.0000 </r>
       <r>    -7.6496     0.0000    16.0000 </r>
       <r>    -7.5495     0.0000    16.0000 </r>
       <r>    -7.4495     0.0000    16.0000 </r>
       <r>    -7.3494     0.0000    16.0000 </r>
       <r>    -7.2493     0.0000    16.0000 </r>
       <r>    -7.1492     0.0000    16.0000 </r>
       <r>    -7.0491     0.0018    16.0002 </r>
       <r>    -6.9490    10.1209    17.0255 </r>
       <r>    -6.8489    31.6987    20.6978 </r>
       <r>    -6.7488    25.8456    23.9871 </r>
       <r>    -6.6488    18.2461    26.3388 </r>
       <r>    -6.5487    18.7647    28.5220 </r>
       <r>    -6.4486    15.4577    30.4222 </r>
       <r>    -6.3485    16.0312    32.6171 </r>
       <r>    -6.2484    27.6249    35.7526 </r>
       <r>    -6.1483    25.8783    38.9840 </r>
       <r>    -6.0482     5.4325    40.0000 </r>
       <r>    -5.9482     0.0000    40.0000 </r>
       <r>    -5.8481     0.0000    40.0000 </r>
       <r>    -5.7480     0.0000    40.0000 </r>
       <r>    -5.6479     0.0000    40.0000 </r>
       <r>    -5.5478     0.0000    40.0000 </r>
       <r>    -5.4477     0.0000    40.0000 </r>
       <r>    -5.3476     0.0000    40.0000 </r>
       <r>    -5.2475     0.0000    40.0000 </r>
       <r>    -5.1475     0.0000    40.0000 </r>
       <r>    -5.0474     0.0000    40.0000 </r>
       <r>    -4.9473     0.0000    40.0000 </r>
       <r>    -4.8472     0.0000    40.0000 </r>
       <r>    -4.7471     0.0000    40.0000 </r>
       <r>    -4.6470     0.0000    40.0000 </r>
       <r>    -4.5469     0.0000    40.0000 </r>
       <r>    -4.4469     0.0000    40.0000 </r>
       <r>    -4.3468     0.0000    40.0000 </r>
       <r>    -4.2467     0.0000    40.0000 </r>
       <r>    -4.1466     0.0000    40.0000 </r>
       <r>    -4.0465     0.0000    40.0000 </r>
       <r>    -3.9464     0.0000    40.0000 </r>
       <r>    -3.8463     0.0000    40.0000 </r>
       <r>    -3.7462     0.0000    40.0000 </r>
       <r>    -3.6462     0.0000    40.0000 </r>
       <r>    -3.5461     0.0000    40.0000 </r>
       <r>    -3.4460     0.0000    40.0000 </r>
       <r>    -3.3459     0.0000    40.0000 </r>
       <r>    -3.2458     0.0000    40.0000 </r>
       <r>    -3.1457     0.0000    40.0000 </r>
       <r>    -3.0456     0.0000    40.0000 </r>
       <r>    -2.9456     0.0000    40.0000 </r>
       <r>    -2.8455     0.0000    40.0000 </r>
       <r>    -2.7454     0.0000    40.0000 </r>
       <r>    -2.6453     0.0000    40.0000 </r>
       <r>    -2.5452     0.0000    40.0000 </r>
       <r>    -2.4451     0.0000    40.0000 </r>
       <r>    -2.3450     0.0000    40.0000 </r>
       <r>    -2.2449     0.0000    40.0000 </r>
       <r>    -2.1449     0.0000    40.0000 </r>
       <r>    -2.0448     0.0000    40.0000 </r>
       <r>    -1.9447     0.0000    40.0000 </r>
       <r>    -1.8446     0.0000    40.0000 </r>
       <r>    -1.7445     0.0000    40.0000 </r>
       <r>    -1.6444     0.0000    40.0000 </r>
       <r>    -1.5443     0.0046    40.0005 </r>
       <r>    -1.4442     1.1115    40.1237 </r>
       <r>    -1.3442     4.9079    40.7038 </r>
       <r>    -1.2441     9.5301    41.7789 </r>
       <r>    -1.1440    13.4897    43.4127 </r>
       <r>    -1.0439    25.3423    46.6490 </r>
       <r>    -0.9438    19.9102    49.4429 </r>
       <r>    -0.8437    17.2111    51.4102 </r>
       <r>    -0.7436    20.7512    53.9020 </r>
       <r>    -0.6436    20.4265    56.3945 </r>
       <r>    -0.5435    35.3418    60.5124 </r>
       <r>    -0.4434    17.8855    63.7653 </r>
       <r>    -0.3433     0.9365    64.0000 </r>
       <r>    -0.2432     0.0000    64.0000 </r>
       <r>    -0.1431     0.0000    64.0000 </r>
       <r>    -0.0430     0.0000    64.0000 </r>
       <r>     0.0571     0.0000    64.0000 </r>
       <r>     0.1571     0.0000    64.0000 </r>
       <r>     0.2572     0.0000    64.0000 </r>
       <r>     0.3573     0.0000    64.0000 </r>
       <r>     0.4574     0.0000    64.0000 </r>
       <r>     0.5575     0.0000    64.0000 </r>
       <r>     0.6576     0.0000    64.0000 </r>
       <r>     0.7577     0.0000    64.0000 </r>
       <r>     0.8577     0.0000    64.0000 </r>
       <r>     0.9578     0.0000    64.0000 </r>
       <r>     1.0579     0.0000    64.0000 </r>
       <r>     1.1580     0.0000    64.0000 </r>
       <r>     1.2581     0.0000    64.0000 </r>
       <r>     1.3582     0.0000    64.0000 </r>
       <r>     1.4583     0.0000    64.0000 </r>
       <r>     1.5584     0.0000    64.0000 </r>
       <r>     1.6584     0.0000    64.0000 </r>
       <r>     1.7585     0.0000    64.0000 </r>
       <r>     1.8586     0.0000    64.0000 </r>
       <r>     1.9587     0.0000    64.0000 </r>
       <r>     2.0588     0.0000    64.0000 </r>
       <r>     2.1589     0.0000    64.0000 </r>
       <r>     2.2590     0.0000    64.0000 </r>
       <r>     2.3591     0.0000    64.0000 </r>
       <r>     2.4591     0.0000    64.0000 </r>
       <r>     2.5592     0.0000    64.0000 </r>
       <r>     2.6593     0.0000    64.0000 </r>
       <r>     2.7594     0.0000    64.0000 </r>
       <r>     2.8595     0.0000    64.0000 </r>
       <r>     2.9596     0.0000    64.0000 </r>
       <r>     3.0597     0.0000    64.0000 </r>
       <r>     3.1597     0.0000    64.0000 </r>
       <r>     3.2598     0.0000    64.0000 </r>
       <r>     3.3599     0.0000    64.0000 </r>
       <r>     3.4600     0.0000    64.0000 </r>
       <r>     3.5601     0.0000    64.0000 </r>
       <r>     3.6602     0.0000    64.0000 </r>
       <r>     3.7603     0.0000    64.0000 </r>
       <r>     3.8604     0.0000    64.0000 </r>
       <r>     3.9604     0.0000    64.0000 </r>
       <r>     4.0605     0.0000    64.0000 </r>
       <r>     4.1606     0.0000    64.0000 </r>
       <r>     4.2607     0.0000    64.0000 </r>
       <r>     4.3608     0.0000    64.0000 </r>
       <r>     4.4609     0.0000    64.0000 </r>
       <r>     4.5610     0.0000    64.0000 </r>
       <r>     4.6610     0.0000    64.0000 </r>
       <r>     4.7611     0.0000    64.0000 </r>
       <r>     4.8612     0.0624    64.0062 </r>
       <r>     4.9613     0.0000    64.0063 </r>
       <r>     5.0614     0.5002    64.0563 </r>
       <r>     5.1615     0.8630    64.1551 </r>
       <r>     5.2616     1.0440    64.2982 </r>
       <r>     5.3617     1.3710    64.4810 </r>
       <r>     5.4617     1.3331    64.6397 </r>
       <r>     5.5618     2.5948    64.9160 </r>
       <r>     5.6619     3.4431    65.3071 </r>
       <r>     5.7620     5.8746    65.9817 </r>
       <r>     5.8621     4.0089    66.5200 </r>
       <r>     5.9622     9.4365    67.6258 </r>
       <r>     6.0623     9.0262    68.8347 </r>
       <r>     6.1623     9.1675    69.8738 </r>
       <r>     6.2624     8.4686    70.9164 </r>
       <r>     6.3625     6.7700    71.7964 </r>
       <r>     6.4626     9.3155    72.8887 </r>
       <r>     6.5627     9.5010    73.9822 </r>
       <r>     6.6628     8.1928    75.0513 </r>
       <r>     6.7629    11.8548    76.4428 </r>
       <r>     6.8630     9.3503    77.7484 </r>
       <r>     6.9630     6.8920    78.5710 </r>
       <r>     7.0631     3.7784    79.1469 </r>
       <r>     7.1632     3.1886    79.5129 </r>
       <r>     7.2633     2.2187    79.8533 </r>
       <r>     7.3634     0.2595    79.9510 </r>
       <r>     7.4635     0.0319    79.9657 </r>
       <r>     7.5636     0.1249    80.0000 </r>
       <r>     7.6637     0.0000    80.0000 </r>
       <r>     7.7637     0.0000    80.0000 </r>
       <r>     7.8638     0.0000    80.0000 </r>
       <r>     7.9639     0.0000    80.0000 </r>
       <r>     8.0640     0.0000    80.0000 </r>
       <r>     8.1641     0.0000    80.0000 </r>
       <r>     8.2642     0.0000    80.0000 </r>
       <r>     8.3643     0.0000    80.0000 </r>
       <r>     8.4643     0.0000    80.0000 </r>
       <r>     8.5644     0.0000    80.0000 </r>
       <r>     8.6645     0.0000    80.0000 </r>
       <r>     8.7646     0.0000    80.0000 </r>
       <r>     8.8647     0.0000    80.0000 </r>
      </set>
     </set>
    </array>
   </total>
  </dos>
 </calculation>
 <structure name="finalpos" >
  <crystal>
   <varray name="basis" >
    <v>       4.14369834       4.14369834       0.00000000 </v>
    <v>       4.14369834      -4.14369834       0.00000000 </v>
    <v>       0.00000000       4.14369834      -8.28739668 </v>
   </varray>
   <i name="volume">    284.59311253 </i>
   <varray name="rec_basis" >
    <v>       0.12066515       0.12066515       0.06033258 </v>
    <v>       0.12066515      -0.12066515      -0.06033258 </v>
    <v>       0.00000000       0.00000000      -0.12066515 </v>
   </varray>
  </crystal>
  <varray name="positions" >
   <v>       0.00000000       0.00000000       0.00000000 </v>
   <v>       0.50000000       0.50000000       0.00000000 </v>
   <v>       0.25000000       0.75000000       0.50000000 </v>
   <v>       0.75000000       0.25000000       0.50000000 </v>
   <v>       0.62500000       0.87500000       0.75107926 </v>
   <v>       0.12500000       0.37500000       0.75000000 </v>
   <v>       0.87500000       0.62500000       0.25000000 </v>
   <v>       0.37500000       0.12500000       0.25000000 </v>
  </varray>
 </structure>
</modeling>
