8    
2    

1    
  0.0044721359549996   0.0089442719099992   0.0000000000000000
  -0.0064339700   -0.0120705000   -0.0002073700
   0.0036416600   -0.0006406500    0.0002079600
  -0.0003730200    0.0028325600   -0.0000071500
  -0.0003584900    0.0027876700    0.0000063600
   0.0016781800    0.0021797900    0.0015927200
   0.0000853900    0.0013662800    0.0007786400
   0.0008475700    0.0017450400   -0.0011579000
   0.0009126700    0.0017998200   -0.0012132700

5    
  0.0044721359549996   0.0089442719099992   0.0000000000000000
   0.0016989300    0.0021533800    0.0015886400
   0.0000717300    0.0013564100    0.0007921400
   0.0008511600    0.0017282100   -0.0011540600
   0.0009200800    0.0017809400   -0.0012088500
  -0.0059482500   -0.0110196800    0.0001969400
   0.0025726300    0.0003776700   -0.0002226000
  -0.0000875800    0.0018245900   -0.0000017400
  -0.0000787000    0.0017984700    0.0000095300
