phonopy:
  version: "2.34.0"
  frequency_unit_conversion_factor: 15.633302
  symmetry_tolerance: 1.00000e-05
  configuration:
    create_displacements: ".TRUE."
    primitive_axes: "1 0 0 0 1 0 0 0 1"
    dim: "1 1 0 1 -1 1 1 -1 -1"

physical_unit:
  atomic_mass: "AMU"
  length: "angstrom"

space_group:
  type: "Pm-3m"
  number: 221
  Hall_symbol: "-P 4 2 3"

primitive_matrix:
- [  1.000000000000000,  0.000000000000000,  0.000000000000000 ]
- [  0.000000000000000,  1.000000000000000,  0.000000000000000 ]
- [  0.000000000000000,  0.000000000000000,  1.000000000000000 ]

supercell_matrix:
- [   1,   1,   0 ]
- [   1,  -1,   1 ]
- [   1,  -1,  -1 ]

primitive_cell:
  lattice:
  - [     4.143698340000000,     0.000000000000000,     0.000000000000000 ] # a
  - [     0.000000000000001,     4.143698340000000,     0.000000000000000 ] # b
  - [     0.000000000000000,     0.000000000000000,     4.143698340000000 ] # c
  points:
  - symbol: Cs # 1
    coordinates: [  0.000000000000000,  0.000000000000000,  0.000000000000000 ]
    mass: 132.905452
  - symbol: Cl # 2
    coordinates: [  0.500000000000000,  0.500000000000000,  0.500000000000000 ]
    mass: 35.453000
  reciprocal_lattice: # without 2pi
  - [     0.241330308808146,    -0.000000000000000,    -0.000000000000000 ] # a*
  - [     0.000000000000000,     0.241330308808146,     0.000000000000000 ] # b*
  - [     0.000000000000000,    -0.000000000000000,     0.241330308808146 ] # c*

unit_cell:
  lattice:
  - [     4.143698340000000,     0.000000000000000,     0.000000000000000 ] # a
  - [     0.000000000000001,     4.143698340000000,     0.000000000000000 ] # b
  - [     0.000000000000000,     0.000000000000000,     4.143698340000000 ] # c
  points:
  - symbol: Cs # 1
    coordinates: [  0.000000000000000,  0.000000000000000,  0.000000000000000 ]
    mass: 132.905452
    reduced_to: 1
  - symbol: Cl # 2
    coordinates: [  0.500000000000000,  0.500000000000000,  0.500000000000000 ]
    mass: 35.453000
    reduced_to: 2

supercell:
  lattice:
  - [     4.143698340000001,     4.143698340000000,     4.143698340000000 ] # a
  - [     4.143698339999999,    -4.143698340000000,    -4.143698340000000 ] # b
  - [     0.000000000000001,     4.143698340000000,    -4.143698339999999 ] # c
  points:
  - symbol: Cs # 1
    coordinates: [  0.000000000000000,  0.000000000000000,  0.000000000000000 ]
    mass: 132.905452
    reduced_to: 1
  - symbol: Cs # 2
    coordinates: [  0.500000000000000,  0.500000000000000,  0.000000000000000 ]
    mass: 132.905452
    reduced_to: 1
  - symbol: Cs # 3
    coordinates: [  0.250000000000000,  0.750000000000000,  0.500000000000000 ]
    mass: 132.905452
    reduced_to: 1
  - symbol: Cs # 4
    coordinates: [  0.750000000000000,  0.250000000000000,  0.500000000000000 ]
    mass: 132.905452
    reduced_to: 1
  - symbol: Cl # 5
    coordinates: [  0.500000000000000,  0.000000000000000,  0.000000000000000 ]
    mass: 35.453000
    reduced_to: 5
  - symbol: Cl # 6
    coordinates: [  0.000000000000000,  0.500000000000000,  0.000000000000000 ]
    mass: 35.453000
    reduced_to: 5
  - symbol: Cl # 7
    coordinates: [  0.750000000000000,  0.750000000000000,  0.500000000000000 ]
    mass: 35.453000
    reduced_to: 5
  - symbol: Cl # 8
    coordinates: [  0.250000000000000,  0.250000000000000,  0.500000000000000 ]
    mass: 35.453000
    reduced_to: 5

displacements:
- atom:    1
  displacement:
    [   0.0044721359549996,  0.0089442719099992,  0.0000000000000000 ]
- atom:    5
  displacement:
    [   0.0044721359549996,  0.0089442719099992,  0.0000000000000000 ]
