8    
2    

1    
  0.0080178372573727  -0.0026726124191242   0.0053452248382485
  -0.1020123600    0.0346058300   -0.0764732600
  -0.0023481800    0.0001582300    0.0030356200
   0.0016737500   -0.0024015200   -0.0041911100
  -0.0041643200    0.0020003800    0.0067674100
   0.0388281200    0.0205655700    0.0365315400
   0.0442583900   -0.0391354800    0.0404572600
   0.0021850100    0.0008192300   -0.0006058300
   0.0215795900   -0.0166122300   -0.0055216300

1    
 -0.0080178372573727   0.0026726124191242  -0.0053452248382485
   0.1029873100   -0.0374153300    0.0778850100
   0.0023316200   -0.0001793500   -0.0030817000
  -0.0016843400    0.0023985000    0.0041840000
   0.0041915500   -0.0020124100   -0.0067040300
  -0.0383111000   -0.0194581800   -0.0362199200
  -0.0456665500    0.0408296300   -0.0420026700
  -0.0021761400   -0.0008343500    0.0005851100
  -0.0216723400    0.0166714900    0.0053542000
