phonopy:
  version: "2.33.3"
  calculator: vasp
  frequency_unit_conversion_factor: 15.633302
  symmetry_tolerance: 1.00000e-05
  configuration:
    dim: "1 -2 0 1 2 0 -1 0 1"

physical_unit:
  atomic_mass: "AMU"
  length: "angstrom"
  force: "eV/angstrom"
  force_constants: "eV/angstrom^2"

space_group:
  type: "Fd-3m"
  number: 227
  Hall_symbol: "F 4d 2 3 -1d"

supercell_matrix:
- [   1,  -2,   0 ]
- [   1,   2,   0 ]
- [  -1,   0,   1 ]

primitive_cell:
  lattice:
  - [     0.000000000000000,     2.721851186499999,     2.721851186499999 ] # a
  - [     2.721851186499999,     0.000000000000000,     2.721851186499999 ] # b
  - [     2.721851186499999,     2.721851186499999,     0.000000000000000 ] # c
  points:
  - symbol: Si # 1
    coordinates: [  0.000000000000000,  0.000000000000000,  0.000000000000000 ]
    mass: 28.085500
  - symbol: Si # 2
    coordinates: [  0.250000000000000,  0.250000000000000,  0.250000000000000 ]
    mass: 28.085500
  reciprocal_lattice: # without 2pi
  - [    -0.183698507280607,     0.183698507280607,     0.183698507280607 ] # a*
  - [     0.183698507280607,    -0.183698507280607,     0.183698507280607 ] # b*
  - [     0.183698507280607,     0.183698507280607,    -0.183698507280607 ] # c*

unit_cell:
  lattice:
  - [     0.000000000000000,     2.721851186500000,     2.721851186500000 ] # a
  - [     2.721851186500000,     0.000000000000000,     2.721851186500000 ] # b
  - [     2.721851186499999,     2.721851186499999,     0.000000000000000 ] # c
  points:
  - symbol: Si # 1
    coordinates: [  0.000000000000000,  0.000000000000000,  0.000000000000000 ]
    mass: 28.085500
    reduced_to: 1
  - symbol: Si # 2
    coordinates: [  0.250000000000000,  0.250000000000000,  0.250000000000000 ]
    mass: 28.085500
    reduced_to: 2

supercell:
  lattice:
  - [     0.000000000000000,     0.000000000000000,     5.443702372999999 ] # a
  - [     5.443702372999999,    -5.443702372999999,     0.000000000000000 ] # b
  - [     2.721851186499999,     2.721851186499999,     0.000000000000000 ] # c
  points:
  - symbol: Si # 1
    coordinates: [  0.000000000000000,  0.000000000000000,  0.000000000000000 ]
    mass: 28.085500
    reduced_to: 1
  - symbol: Si # 2
    coordinates: [  0.500000000000000,  0.750000000000000,  0.500000000000000 ]
    mass: 28.085500
    reduced_to: 1
  - symbol: Si # 3
    coordinates: [  0.000000000000000,  0.500000000000000,  0.000000000000000 ]
    mass: 28.085500
    reduced_to: 1
  - symbol: Si # 4
    coordinates: [  0.500000000000000,  0.250000000000000,  0.500000000000000 ]
    mass: 28.085500
    reduced_to: 1
  - symbol: Si # 5
    coordinates: [  0.250000000000000,  1.000000000000000,  0.500000000000000 ]
    mass: 28.085500
    reduced_to: 5
  - symbol: Si # 6
    coordinates: [  0.750000000000000,  0.750000000000000,  0.000000000000000 ]
    mass: 28.085500
    reduced_to: 5
  - symbol: Si # 7
    coordinates: [  0.250000000000000,  0.500000000000000,  0.500000000000000 ]
    mass: 28.085500
    reduced_to: 5
  - symbol: Si # 8
    coordinates: [  0.750000000000000,  0.250000000000000,  0.000000000000000 ]
    mass: 28.085500
    reduced_to: 5

force_constants:
  format: "compact"
  shape: [ 2, 8 ]
  elements:
  - # (1, 1)
    - [    12.697731770669609,    -0.258731165077329,    -0.000000000000002 ]
    - [    -0.258731165077331,    12.697731770669613,    -0.000000000000002 ]
    - [    -0.000000000000002,    -0.000000000000000,    14.438894028878630 ]
  - # (1, 2)
    - [     0.406398246235759,    -0.000180534968914,     0.171978733882639 ]
    - [    -0.000180534968914,     0.406398246235759,    -0.171978733882638 ]
    - [    -0.171912319464022,     0.171912319464022,    -0.916180356896772 ]
  - # (1, 3)
    - [    -0.123340227951204,     0.258220428843978,    -0.000000000000000 ]
    - [     0.258220428843978,    -0.123340227951204,    -0.000000000000000 ]
    - [     0.000000000000000,    -0.000000000000000,     0.783419804913606 ]
  - # (1, 4)
    - [     0.406398246235759,    -0.000180534968914,    -0.171978733882638 ]
    - [    -0.000180534968914,     0.406398246235759,     0.171978733882639 ]
    - [     0.171912319464022,    -0.171912319464022,    -0.916180356896772 ]
  - # (1, 5)
    - [    -6.347754730017704,    -4.611837573904110,     0.000000000000002 ]
    - [    -4.611837573904110,    -6.347754730017705,     0.000000000000000 ]
    - [     0.000000000000001,     0.000000000000001,    -6.805275942689708 ]
  - # (1, 6)
    - [    -3.347401052611868,     2.415352326737789,    -2.182690224088513 ]
    - [     2.415352326737790,    -3.347401052611870,     2.182690224088514 ]
    - [    -2.183126127174052,     2.183126127174054,    -3.348039706757048 ]
  - # (1, 7)
    - [    -0.344630732241307,    -0.217995741107462,    -0.000000000000000 ]
    - [    -0.217995741107462,    -0.344630732241307,     0.000000000000000 ]
    - [     0.000000000000000,     0.000000000000000,     0.111402236205114 ]
  - # (1, 8)
    - [    -3.347401052611870,     2.415352326737790,     2.182690224088514 ]
    - [     2.415352326737790,    -3.347401052611870,    -2.182690224088513 ]
    - [     2.183126127174054,    -2.183126127174053,    -3.348039706757048 ]
  - # (2, 1)
    - [    -6.347754730017705,    -4.611837573904110,    -0.000000000000000 ]
    - [    -4.611837573904110,    -6.347754730017704,    -0.000000000000002 ]
    - [    -0.000000000000001,    -0.000000000000001,    -6.805275942689708 ]
  - # (2, 2)
    - [    -3.347401052611870,     2.415352326737790,     2.182690224088513 ]
    - [     2.415352326737790,    -3.347401052611870,    -2.182690224088514 ]
    - [     2.183126127174053,    -2.183126127174054,    -3.348039706757048 ]
  - # (2, 3)
    - [    -0.344630732241307,    -0.217995741107462,    -0.000000000000000 ]
    - [    -0.217995741107462,    -0.344630732241307,     0.000000000000000 ]
    - [    -0.000000000000000,    -0.000000000000000,     0.111402236205114 ]
  - # (2, 4)
    - [    -3.347401052611870,     2.415352326737790,    -2.182690224088514 ]
    - [     2.415352326737789,    -3.347401052611868,     2.182690224088513 ]
    - [    -2.183126127174054,     2.183126127174052,    -3.348039706757048 ]
  - # (2, 5)
    - [    12.697731770669613,    -0.258731165077331,     0.000000000000002 ]
    - [    -0.258731165077330,    12.697731770669609,     0.000000000000002 ]
    - [     0.000000000000000,     0.000000000000002,    14.438894028878630 ]
  - # (2, 6)
    - [     0.406398246235759,    -0.000180534968914,    -0.171978733882639 ]
    - [    -0.000180534968914,     0.406398246235759,     0.171978733882638 ]
    - [     0.171912319464022,    -0.171912319464022,    -0.916180356896772 ]
  - # (2, 7)
    - [    -0.123340227951204,     0.258220428843978,     0.000000000000000 ]
    - [     0.258220428843978,    -0.123340227951204,     0.000000000000000 ]
    - [     0.000000000000000,    -0.000000000000000,     0.783419804913606 ]
  - # (2, 8)
    - [     0.406398246235759,    -0.000180534968914,     0.171978733882638 ]
    - [    -0.000180534968914,     0.406398246235759,    -0.171978733882639 ]
    - [    -0.171912319464022,     0.171912319464022,    -0.916180356896772 ]