phonopy:
  version: "2.33.3"
  frequency_unit_conversion_factor: 15.633302
  symmetry_tolerance: 1.00000e-05
  configuration:
    force_sets: "READ"
    force_constants: "WRITE"
    fc_format: "HDF5"
    fc_symmetry: ".FALSE."
    include_fc: ".TRUE."
    primitive_axes: "1 0 0 0 1 0 0 0 1"
    dim: "-1 1 0 -1 -1 0 1 0 1"

physical_unit:
  atomic_mass: "AMU"
  length: "angstrom"
  force: "eV/angstrom"
  force_constants: "eV/angstrom^2"

space_group:
  type: "Fd-3m"
  number: 227
  Hall_symbol: "F 4d 2 3 -1d"

primitive_matrix:
- [  1.000000000000000,  0.000000000000000,  0.000000000000000 ]
- [  0.000000000000000,  1.000000000000000,  0.000000000000000 ]
- [  0.000000000000000,  0.000000000000000,  1.000000000000000 ]

supercell_matrix:
- [  -1,   1,   0 ]
- [  -1,  -1,   0 ]
- [   1,   0,   1 ]

primitive_cell:
  lattice:
  - [     0.000000000000000,     2.721851186500000,     2.721851186500000 ] # a
  - [     2.721851186500000,     0.000000000000000,     2.721851186500000 ] # b
  - [     2.721851186500000,     2.721851186500000,     0.000000000000000 ] # c
  points:
  - symbol: Si # 1
    coordinates: [  0.000000000000000,  0.000000000000000,  1.000000000000000 ]
    mass: 28.085500
  - symbol: Si # 2
    coordinates: [  0.250000000000000,  0.250000000000000,  0.250000000000000 ]
    mass: 28.085500
  reciprocal_lattice: # without 2pi
  - [    -0.183698507280607,     0.183698507280607,     0.183698507280607 ] # a*
  - [     0.183698507280607,    -0.183698507280607,     0.183698507280607 ] # b*
  - [     0.183698507280607,     0.183698507280607,    -0.183698507280607 ] # c*

unit_cell:
  lattice:
  - [     0.000000000000000,     2.721851186500000,     2.721851186500000 ] # a
  - [     2.721851186500000,     0.000000000000000,     2.721851186500000 ] # b
  - [     2.721851186500000,     2.721851186500000,     0.000000000000000 ] # c
  points:
  - symbol: Si # 1
    coordinates: [  0.000000000000000,  0.000000000000000,  1.000000000000000 ]
    mass: 28.085500
    reduced_to: 1
  - symbol: Si # 2
    coordinates: [  0.250000000000000,  0.250000000000000,  0.250000000000000 ]
    mass: 28.085500
    reduced_to: 2

supercell:
  lattice:
  - [     0.000000000000000,     0.000000000000000,    -5.443702373000000 ] # a
  - [    -2.721851186499999,     2.721851186500000,     0.000000000000000 ] # b
  - [     2.721851186500000,     2.721851186500000,     0.000000000000000 ] # c
  points:
  - symbol: Si # 1
    coordinates: [  0.000000000000000,  0.000000000000000,  1.000000000000000 ]
    mass: 28.085500
    reduced_to: 1
  - symbol: Si # 2
    coordinates: [  0.500000000000000,  0.500000000000000,  0.500000000000000 ]
    mass: 28.085500
    reduced_to: 1
  - symbol: Si # 3
    coordinates: [  0.750000000000000,  0.000000000000000,  0.500000000000000 ]
    mass: 28.085500
    reduced_to: 3
  - symbol: Si # 4
    coordinates: [  0.250000000000000,  0.500000000000000,  1.000000000000000 ]
    mass: 28.085500
    reduced_to: 3

force_constants:
  format: "compact"
  shape: [ 2, 4 ]
  elements:
  - # (1, 1)
    - [    12.575807712915557,     0.000000000000002,     0.000000000000000 ]
    - [    -0.000000000000002,    12.575807712915553,    -0.000000000000002 ]
    - [    -0.000000000000000,     0.000000000000000,    15.220824300181619 ]
  - # (1, 2)
    - [     0.812285091563307,     0.000000000000000,    -0.000000000000000 ]
    - [    -0.000000000000000,     0.812285091563307,     0.000000000000000 ]
    - [    -0.000000000000000,     0.000000000000000,    -1.832523289074784 ]
  - # (1, 3)
    - [    -6.694046402239436,    -4.829796097271226,    -0.000000000000001 ]
    - [    -4.829796097271222,    -6.694046402239429,    -0.000000000000000 ]
    - [     0.000000000000000,     0.000000000000000,    -6.694150505553417 ]
  - # (1, 4)
    - [    -6.694046402239431,     4.829796097271223,     0.000000000000000 ]
    - [     4.829796097271223,    -6.694046402239433,     0.000000000000001 ]
    - [     0.000000000000000,    -0.000000000000000,    -6.694150505553417 ]
  - # (2, 1)
    - [    -6.694046402239431,    -4.829796097271221,     0.000000000000000 ]
    - [    -4.829796097271221,    -6.694046402239429,     0.000000000000000 ]
    - [     0.000000000000001,     0.000000000000000,    -6.694150505553417 ]
  - # (2, 2)
    - [    -6.694046402239430,     4.829796097271222,     0.000000000000001 ]
    - [     4.829796097271226,    -6.694046402239434,    -0.000000000000001 ]
    - [     0.000000000000001,     0.000000000000000,    -6.694150505553417 ]
  - # (2, 3)
    - [    12.575807712915553,    -0.000000000000001,     0.000000000000000 ]
    - [    -0.000000000000005,    12.575807712915553,     0.000000000000000 ]
    - [    -0.000000000000002,    -0.000000000000000,    15.220824300181619 ]
  - # (2, 4)
    - [     0.812285091563307,    -0.000000000000000,    -0.000000000000000 ]
    - [    -0.000000000000000,     0.812285091563307,    -0.000000000000000 ]
    - [     0.000000000000000,    -0.000000000000000,    -1.832523289074784 ]