<?xml version="1.0" encoding="ISO-8859-1"?>
<modeling>
 <generator>
  <i name="program" type="string">vasp </i>
  <i name="version" type="string">6.4.3  </i>
  <i name="subversion" type="string">19Mar24 (build Jun 20 2024 15:56:09) complex                          parallel </i>
  <i name="platform" type="string">LinuxNV_CrayMPICH </i>
  <i name="date" type="string">2025 01 07 </i>
  <i name="time" type="string">18:37:44 </i>
 </generator>
 <incar>
  <i type="string" name="PREC">Accurate</i>
  <i type="int" name="IBRION">    -1</i>
  <i name="EDIFF">      0.00000001</i>
  <i type="int" name="NSW">     0</i>
  <i name="ENCUT">    500.00000000</i>
  <i type="logical" name="LREAL"> F  </i>
  <i type="int" name="ISMEAR">     0</i>
  <i name="SIGMA">      0.01000000</i>
  <i type="logical" name="LWAVE"> F  </i>
  <i type="logical" name="LCHARG"> F  </i>
 </incar>
 <primitive_cell>
  <structure name="primitive_cell" >
   <crystal>
    <varray name="basis" >
     <v>       8.28739668       8.28739668       0.00000000 </v>
     <v>      -4.14369834       4.14369834      -0.00000000 </v>
     <v>       0.00000000       0.00000000       4.14369834 </v>
    </varray>
    <i name="volume">    284.59311253 </i>
    <varray name="rec_basis" >
     <v>       0.06033258       0.06033258      -0.00000000 </v>
     <v>      -0.12066515       0.12066515       0.00000000 </v>
     <v>      -0.00000000      -0.00000000       0.24133031 </v>
    </varray>
   </crystal>
   <varray name="positions" >
    <v>       0.00072764       0.00072764       0.00072764 </v>
    <v>       0.25000000       0.50000000       0.00000000 </v>
    <v>       0.50000000       0.00000000       1.00000000 </v>
    <v>       0.75000000       0.50000000       1.00000000 </v>
    <v>       0.25000000       0.00000000       0.50000000 </v>
    <v>       0.50000000       0.50000000       0.50000000 </v>
    <v>       0.75000000       0.00000000       0.50000000 </v>
    <v>       0.00000000       0.50000000       0.50000000 </v>
   </varray>
  </structure>
  <varray name="primitive_index" >
   <v type="int" >        1 </v>
   <v type="int" >        2 </v>
   <v type="int" >        3 </v>
   <v type="int" >        4 </v>
   <v type="int" >        5 </v>
   <v type="int" >        6 </v>
   <v type="int" >        7 </v>
   <v type="int" >        8 </v>
  </varray>
 </primitive_cell>
 <kpoints>
  <generation param="Gamma">
   <v type="int" name="divisions">       4        7       10 </v>
   <v name="usershift">      0.00000000       0.00000000       0.00000000 </v>
   <v name="genvec1">      0.25000000       0.00000000       0.00000000 </v>
   <v name="genvec2">     -0.00000000       0.14285714       0.00000000 </v>
   <v name="genvec3">     -0.00000000       0.00000000       0.10000000 </v>
   <v name="shift">      0.00000000       0.00000000       0.00000000 </v>
  </generation>
  <varray name="kpointlist" >
   <v>       0.00000000       0.00000000       0.00000000 </v>
   <v>       0.25000000       0.00000000       0.00000000 </v>
   <v>       0.50000000       0.00000000       0.00000000 </v>
   <v>       0.00000000       0.14285714       0.00000000 </v>
   <v>       0.25000000       0.14285714       0.00000000 </v>
   <v>      -0.25000000       0.14285714       0.00000000 </v>
   <v>       0.50000000       0.14285714       0.00000000 </v>
   <v>       0.00000000       0.28571429       0.00000000 </v>
   <v>       0.25000000       0.28571429       0.00000000 </v>
   <v>      -0.25000000       0.28571429       0.00000000 </v>
   <v>       0.50000000       0.28571429       0.00000000 </v>
   <v>       0.00000000       0.42857143       0.00000000 </v>
   <v>       0.25000000       0.42857143       0.00000000 </v>
   <v>      -0.25000000       0.42857143       0.00000000 </v>
   <v>       0.50000000       0.42857143       0.00000000 </v>
   <v>       0.00000000       0.00000000       0.10000000 </v>
   <v>       0.25000000       0.00000000       0.10000000 </v>
   <v>      -0.25000000       0.00000000       0.10000000 </v>
   <v>       0.50000000       0.00000000       0.10000000 </v>
   <v>       0.00000000       0.14285714       0.10000000 </v>
   <v>       0.00000000      -0.14285714       0.10000000 </v>
   <v>       0.25000000       0.14285714       0.10000000 </v>
   <v>      -0.25000000      -0.14285714       0.10000000 </v>
   <v>      -0.25000000       0.14285714      -0.10000000 </v>
   <v>       0.25000000      -0.14285714      -0.10000000 </v>
   <v>       0.50000000       0.14285714       0.10000000 </v>
   <v>       0.50000000      -0.14285714       0.10000000 </v>
   <v>       0.00000000       0.28571429       0.10000000 </v>
   <v>       0.00000000      -0.28571429       0.10000000 </v>
   <v>       0.25000000       0.28571429       0.10000000 </v>
   <v>      -0.25000000      -0.28571429       0.10000000 </v>
   <v>      -0.25000000       0.28571429      -0.10000000 </v>
   <v>       0.25000000      -0.28571429      -0.10000000 </v>
   <v>       0.50000000       0.28571429       0.10000000 </v>
   <v>       0.50000000      -0.28571429       0.10000000 </v>
   <v>       0.00000000       0.42857143       0.10000000 </v>
   <v>       0.00000000      -0.42857143       0.10000000 </v>
   <v>       0.25000000       0.42857143       0.10000000 </v>
   <v>      -0.25000000      -0.42857143       0.10000000 </v>
   <v>      -0.25000000       0.42857143      -0.10000000 </v>
   <v>       0.25000000      -0.42857143      -0.10000000 </v>
   <v>       0.50000000       0.42857143       0.10000000 </v>
   <v>       0.50000000      -0.42857143       0.10000000 </v>
   <v>       0.00000000       0.00000000       0.20000000 </v>
   <v>       0.25000000       0.00000000       0.20000000 </v>
   <v>      -0.25000000       0.00000000       0.20000000 </v>
   <v>       0.50000000       0.00000000       0.20000000 </v>
   <v>       0.00000000       0.14285714       0.20000000 </v>
   <v>       0.00000000      -0.14285714       0.20000000 </v>
   <v>       0.25000000       0.14285714       0.20000000 </v>
   <v>      -0.25000000      -0.14285714       0.20000000 </v>
   <v>      -0.25000000       0.14285714      -0.20000000 </v>
   <v>       0.25000000      -0.14285714      -0.20000000 </v>
   <v>       0.50000000       0.14285714       0.20000000 </v>
   <v>       0.50000000      -0.14285714       0.20000000 </v>
   <v>       0.00000000       0.28571429       0.20000000 </v>
   <v>       0.00000000      -0.28571429       0.20000000 </v>
   <v>       0.25000000       0.28571429       0.20000000 </v>
   <v>      -0.25000000      -0.28571429       0.20000000 </v>
   <v>      -0.25000000       0.28571429      -0.20000000 </v>
   <v>       0.25000000      -0.28571429      -0.20000000 </v>
   <v>       0.50000000       0.28571429       0.20000000 </v>
   <v>       0.50000000      -0.28571429       0.20000000 </v>
   <v>       0.00000000       0.42857143       0.20000000 </v>
   <v>       0.00000000      -0.42857143       0.20000000 </v>
   <v>       0.25000000       0.42857143       0.20000000 </v>
   <v>      -0.25000000      -0.42857143       0.20000000 </v>
   <v>      -0.25000000       0.42857143      -0.20000000 </v>
   <v>       0.25000000      -0.42857143      -0.20000000 </v>
   <v>       0.50000000       0.42857143       0.20000000 </v>
   <v>       0.50000000      -0.42857143       0.20000000 </v>
   <v>       0.00000000       0.00000000       0.30000000 </v>
   <v>       0.25000000       0.00000000       0.30000000 </v>
   <v>      -0.25000000       0.00000000       0.30000000 </v>
   <v>       0.50000000       0.00000000       0.30000000 </v>
   <v>       0.00000000       0.14285714       0.30000000 </v>
   <v>       0.00000000      -0.14285714       0.30000000 </v>
   <v>       0.25000000       0.14285714       0.30000000 </v>
   <v>      -0.25000000      -0.14285714       0.30000000 </v>
   <v>      -0.25000000       0.14285714      -0.30000000 </v>
   <v>       0.25000000      -0.14285714      -0.30000000 </v>
   <v>       0.50000000       0.14285714       0.30000000 </v>
   <v>       0.50000000      -0.14285714       0.30000000 </v>
   <v>       0.00000000       0.28571429       0.30000000 </v>
   <v>       0.00000000      -0.28571429       0.30000000 </v>
   <v>       0.25000000       0.28571429       0.30000000 </v>
   <v>      -0.25000000      -0.28571429       0.30000000 </v>
   <v>      -0.25000000       0.28571429      -0.30000000 </v>
   <v>       0.25000000      -0.28571429      -0.30000000 </v>
   <v>       0.50000000       0.28571429       0.30000000 </v>
   <v>       0.50000000      -0.28571429       0.30000000 </v>
   <v>       0.00000000       0.42857143       0.30000000 </v>
   <v>       0.00000000      -0.42857143       0.30000000 </v>
   <v>       0.25000000       0.42857143       0.30000000 </v>
   <v>      -0.25000000      -0.42857143       0.30000000 </v>
   <v>      -0.25000000       0.42857143      -0.30000000 </v>
   <v>       0.25000000      -0.42857143      -0.30000000 </v>
   <v>       0.50000000       0.42857143       0.30000000 </v>
   <v>       0.50000000      -0.42857143       0.30000000 </v>
   <v>       0.00000000       0.00000000       0.40000000 </v>
   <v>       0.25000000       0.00000000       0.40000000 </v>
   <v>      -0.25000000       0.00000000       0.40000000 </v>
   <v>       0.50000000       0.00000000       0.40000000 </v>
   <v>       0.00000000       0.14285714       0.40000000 </v>
   <v>       0.00000000      -0.14285714       0.40000000 </v>
   <v>       0.25000000       0.14285714       0.40000000 </v>
   <v>      -0.25000000      -0.14285714       0.40000000 </v>
   <v>      -0.25000000       0.14285714      -0.40000000 </v>
   <v>       0.25000000      -0.14285714      -0.40000000 </v>
   <v>       0.50000000       0.14285714       0.40000000 </v>
   <v>       0.50000000      -0.14285714       0.40000000 </v>
   <v>       0.00000000       0.28571429       0.40000000 </v>
   <v>       0.00000000      -0.28571429       0.40000000 </v>
   <v>       0.25000000       0.28571429       0.40000000 </v>
   <v>      -0.25000000      -0.28571429       0.40000000 </v>
   <v>      -0.25000000       0.28571429      -0.40000000 </v>
   <v>       0.25000000      -0.28571429      -0.40000000 </v>
   <v>       0.50000000       0.28571429       0.40000000 </v>
   <v>       0.50000000      -0.28571429       0.40000000 </v>
   <v>       0.00000000       0.42857143       0.40000000 </v>
   <v>       0.00000000      -0.42857143       0.40000000 </v>
   <v>       0.25000000       0.42857143       0.40000000 </v>
   <v>      -0.25000000      -0.42857143       0.40000000 </v>
   <v>      -0.25000000       0.42857143      -0.40000000 </v>
   <v>       0.25000000      -0.42857143      -0.40000000 </v>
   <v>       0.50000000       0.42857143       0.40000000 </v>
   <v>       0.50000000      -0.42857143       0.40000000 </v>
   <v>       0.00000000       0.00000000       0.50000000 </v>
   <v>       0.25000000       0.00000000       0.50000000 </v>
   <v>       0.50000000       0.00000000       0.50000000 </v>
   <v>       0.00000000       0.14285714       0.50000000 </v>
   <v>       0.25000000       0.14285714       0.50000000 </v>
   <v>      -0.25000000       0.14285714       0.50000000 </v>
   <v>       0.50000000       0.14285714       0.50000000 </v>
   <v>       0.00000000       0.28571429       0.50000000 </v>
   <v>       0.25000000       0.28571429       0.50000000 </v>
   <v>      -0.25000000       0.28571429       0.50000000 </v>
   <v>       0.50000000       0.28571429       0.50000000 </v>
   <v>       0.00000000       0.42857143       0.50000000 </v>
   <v>       0.25000000       0.42857143       0.50000000 </v>
   <v>      -0.25000000       0.42857143       0.50000000 </v>
   <v>       0.50000000       0.42857143       0.50000000 </v>
  </varray>
  <varray name="weights" >
   <v>       0.00357143 </v>
   <v>       0.00714286 </v>
   <v>       0.00357143 </v>
   <v>       0.00714286 </v>
   <v>       0.00714286 </v>
   <v>       0.00714286 </v>
   <v>       0.00714286 </v>
   <v>       0.00714286 </v>
   <v>       0.00714286 </v>
   <v>       0.00714286 </v>
   <v>       0.00714286 </v>
   <v>       0.00714286 </v>
   <v>       0.00714286 </v>
   <v>       0.00714286 </v>
   <v>       0.00714286 </v>
   <v>       0.00714286 </v>
   <v>       0.00714286 </v>
   <v>       0.00714286 </v>
   <v>       0.00714286 </v>
   <v>       0.00714286 </v>
   <v>       0.00714286 </v>
   <v>       0.00714286 </v>
   <v>       0.00714286 </v>
   <v>       0.00714286 </v>
   <v>       0.00714286 </v>
   <v>       0.00714286 </v>
   <v>       0.00714286 </v>
   <v>       0.00714286 </v>
   <v>       0.00714286 </v>
   <v>       0.00714286 </v>
   <v>       0.00714286 </v>
   <v>       0.00714286 </v>
   <v>       0.00714286 </v>
   <v>       0.00714286 </v>
   <v>       0.00714286 </v>
   <v>       0.00714286 </v>
   <v>       0.00714286 </v>
   <v>       0.00714286 </v>
   <v>       0.00714286 </v>
   <v>       0.00714286 </v>
   <v>       0.00714286 </v>
   <v>       0.00714286 </v>
   <v>       0.00714286 </v>
   <v>       0.00714286 </v>
   <v>       0.00714286 </v>
   <v>       0.00714286 </v>
   <v>       0.00714286 </v>
   <v>       0.00714286 </v>
   <v>       0.00714286 </v>
   <v>       0.00714286 </v>
   <v>       0.00714286 </v>
   <v>       0.00714286 </v>
   <v>       0.00714286 </v>
   <v>       0.00714286 </v>
   <v>       0.00714286 </v>
   <v>       0.00714286 </v>
   <v>       0.00714286 </v>
   <v>       0.00714286 </v>
   <v>       0.00714286 </v>
   <v>       0.00714286 </v>
   <v>       0.00714286 </v>
   <v>       0.00714286 </v>
   <v>       0.00714286 </v>
   <v>       0.00714286 </v>
   <v>       0.00714286 </v>
   <v>       0.00714286 </v>
   <v>       0.00714286 </v>
   <v>       0.00714286 </v>
   <v>       0.00714286 </v>
   <v>       0.00714286 </v>
   <v>       0.00714286 </v>
   <v>       0.00714286 </v>
   <v>       0.00714286 </v>
   <v>       0.00714286 </v>
   <v>       0.00714286 </v>
   <v>       0.00714286 </v>
   <v>       0.00714286 </v>
   <v>       0.00714286 </v>
   <v>       0.00714286 </v>
   <v>       0.00714286 </v>
   <v>       0.00714286 </v>
   <v>       0.00714286 </v>
   <v>       0.00714286 </v>
   <v>       0.00714286 </v>
   <v>       0.00714286 </v>
   <v>       0.00714286 </v>
   <v>       0.00714286 </v>
   <v>       0.00714286 </v>
   <v>       0.00714286 </v>
   <v>       0.00714286 </v>
   <v>       0.00714286 </v>
   <v>       0.00714286 </v>
   <v>       0.00714286 </v>
   <v>       0.00714286 </v>
   <v>       0.00714286 </v>
   <v>       0.00714286 </v>
   <v>       0.00714286 </v>
   <v>       0.00714286 </v>
   <v>       0.00714286 </v>
   <v>       0.00714286 </v>
   <v>       0.00714286 </v>
   <v>       0.00714286 </v>
   <v>       0.00714286 </v>
   <v>       0.00714286 </v>
   <v>       0.00714286 </v>
   <v>       0.00714286 </v>
   <v>       0.00714286 </v>
   <v>       0.00714286 </v>
   <v>       0.00714286 </v>
   <v>       0.00714286 </v>
   <v>       0.00714286 </v>
   <v>       0.00714286 </v>
   <v>       0.00714286 </v>
   <v>       0.00714286 </v>
   <v>       0.00714286 </v>
   <v>       0.00714286 </v>
   <v>       0.00714286 </v>
   <v>       0.00714286 </v>
   <v>       0.00714286 </v>
   <v>       0.00714286 </v>
   <v>       0.00714286 </v>
   <v>       0.00714286 </v>
   <v>       0.00714286 </v>
   <v>       0.00714286 </v>
   <v>       0.00714286 </v>
   <v>       0.00714286 </v>
   <v>       0.00714286 </v>
   <v>       0.00357143 </v>
   <v>       0.00714286 </v>
   <v>       0.00357143 </v>
   <v>       0.00714286 </v>
   <v>       0.00714286 </v>
   <v>       0.00714286 </v>
   <v>       0.00714286 </v>
   <v>       0.00714286 </v>
   <v>       0.00714286 </v>
   <v>       0.00714286 </v>
   <v>       0.00714286 </v>
   <v>       0.00714286 </v>
   <v>       0.00714286 </v>
   <v>       0.00714286 </v>
   <v>       0.00714286 </v>
  </varray>
 </kpoints>
 <parameters>
  <separator name="general" >
   <i type="string" name="SYSTEM">unknown system</i>
   <i type="logical" name="LCOMPAT"> F  </i>
  </separator>
  <separator name="electronic" >
   <i type="string" name="PREC">accura</i>
   <i name="ENMAX">    500.00000000</i>
   <i name="ENAUG">    407.93300000</i>
   <i name="EDIFF">      0.00000001</i>
   <i type="int" name="IALGO">    38</i>
   <i type="int" name="IWAVPR">    10</i>
   <i type="int" name="NBANDS">    40</i>
   <i type="int" name="NBANDSLOW">    -1</i>
   <i type="int" name="NBANDSHIGH">    -1</i>
   <i name="NELECT">     64.00000000</i>
   <i type="int" name="TURBO">     0</i>
   <i type="int" name="IRESTART">     0</i>
   <i type="int" name="NREBOOT">     0</i>
   <i type="int" name="NMIN">     0</i>
   <i name="EREF">      0.00000000</i>
   <separator name="electronic smearing" >
    <i type="int" name="ISMEAR">     0</i>
    <i name="SIGMA">      0.01000000</i>
    <i name="KSPACING">      0.50000000</i>
    <i type="logical" name="KGAMMA"> T  </i>
    <i type="logical" name="KBLOWUP"> T  </i>
   </separator>
   <separator name="electronic projectors" >
    <i type="logical" name="LREAL"> F  </i>
    <v name="ROPT">      0.00000000      0.00000000</v>
    <i type="int" name="LMAXPAW">  -100</i>
    <i type="int" name="LMAXMIX">     2</i>
    <i type="logical" name="NLSPLINE"> F  </i>
   </separator>
   <separator name="electronic startup" >
    <i type="int" name="ISTART">     0</i>
    <i type="int" name="ICHARG">     2</i>
    <i type="int" name="INIWAV">     1</i>
   </separator>
   <separator name="electronic spin" >
    <i type="int" name="ISPIN">     1</i>
    <i type="logical" name="LNONCOLLINEAR"> F  </i>
    <v name="MAGMOM">      1.00000000      1.00000000      1.00000000      1.00000000      1.00000000      1.00000000      1.00000000      1.00000000</v>
    <i name="NUPDOWN">     -1.00000000</i>
    <i type="logical" name="LSORBIT"> F  </i>
    <v name="SAXIS">      0.00000000      0.00000000      1.00000000</v>
    <i type="logical" name="LSPIRAL"> F  </i>
    <v name="QSPIRAL">      0.00000000      0.00000000      0.00000000</v>
    <i type="logical" name="LZEROZ"> F  </i>
   </separator>
   <separator name="electronic exchange-correlation" >
    <i type="logical" name="LASPH"> F  </i>
   </separator>
   <separator name="electronic convergence" >
    <i type="int" name="NELM">    60</i>
    <i type="int" name="NELMDL">    -5</i>
    <i type="int" name="NELMIN">     2</i>
    <i name="ENINI">    500.00000000</i>
    <separator name="electronic convergence detail" >
     <i type="logical" name="LDIAG"> T  </i>
     <i type="logical" name="LSUBROT"> F  </i>
     <i name="WEIMIN">      0.00000000</i>
     <i name="EBREAK">      0.00000000</i>
     <i name="DEPER">      0.30000000</i>
     <i type="int" name="NRMM">     4</i>
     <i name="TIME">      0.40000000</i>
    </separator>
   </separator>
   <separator name="electronic mixer" >
    <i name="AMIX">      0.40000000</i>
    <i name="BMIX">      1.00000000</i>
    <i name="AMIN">      0.10000000</i>
    <i name="AMIX_MAG">      1.60000000</i>
    <i name="BMIX_MAG">      1.00000000</i>
    <separator name="electronic mixer details" >
     <i type="int" name="IMIX">     4</i>
     <i type="logical" name="MIXFIRST"> F  </i>
     <i type="int" name="MAXMIX">   -45</i>
     <i name="WC">    100.00000000</i>
     <i type="int" name="INIMIX">     1</i>
     <i type="int" name="MIXPRE">     1</i>
     <i type="int" name="MREMOVE">     5</i>
    </separator>
   </separator>
   <separator name="electronic dipolcorrection" >
    <i type="logical" name="LDIPOL"> F  </i>
    <i type="logical" name="LMONO"> F  </i>
    <i type="int" name="IDIPOL">     0</i>
    <i name="EPSILON">      1.00000000</i>
    <v name="DIPOL">   -100.00000000   -100.00000000   -100.00000000</v>
    <i name="EFIELD">      0.00000000</i>
    <i type="logical" name="LVACPOTAV"> F  </i>
   </separator>
  </separator>
  <separator name="grids" >
   <i type="int" name="NGX">    90</i>
   <i type="int" name="NGY">    48</i>
   <i type="int" name="NGZ">    30</i>
   <i type="int" name="NGXF">   180</i>
   <i type="int" name="NGYF">    96</i>
   <i type="int" name="NGZF">    60</i>
   <i type="logical" name="ADDGRID"> F  </i>
  </separator>
  <separator name="ionic" >
   <i type="int" name="NSW">     0</i>
   <i type="int" name="IBRION">    -1</i>
   <i type="int" name="MDALGO">     0</i>
   <i type="int" name="ISIF">     2</i>
   <i name="PSTRESS">      0.00000000</i>
   <i name="EDIFFG">      0.00000010</i>
   <i type="int" name="NFREE">     0</i>
   <i name="POTIM">      0.50000000</i>
   <i name="SMASS">     -3.00000000</i>
   <i name="SCALEE">      1.00000000</i>
  </separator>
  <separator name="ionic md" >
   <i name="TEBEG">      0.00010000</i>
   <i name="TEEND">      0.00010000</i>
   <i type="int" name="NBLOCK">     1</i>
   <i type="int" name="KBLOCK">     1</i>
   <i type="int" name="NPACO">   256</i>
   <i name="APACO">     10.00000000</i>
  </separator>
  <separator name="symmetry" >
   <i type="int" name="ISYM">     2</i>
   <i name="SYMPREC">      0.00001000</i>
  </separator>
  <separator name="dos" >
   <i type="int" name="LORBIT">     0</i>
   <v name="RWIGS">     -1.00000000     -1.00000000</v>
   <i type="int" name="NEDOS">   301</i>
   <i name="EMIN">     10.00000000</i>
   <i name="EMAX">    -10.00000000</i>
   <i name="EFERMI">      0.00000000</i>
  </separator>
  <separator name="writing" >
   <i type="int" name="NWRITE">     2</i>
   <i type="logical" name="LWAVE"> F  </i>
   <i type="logical" name="LDOWNSAMPLE"> F  </i>
   <i type="logical" name="LCHARG"> F  </i>
   <i type="logical" name="LPARD"> F  </i>
   <i type="logical" name="LVTOT"> F  </i>
   <i type="logical" name="LVHAR"> F  </i>
   <i type="logical" name="LELF"> F  </i>
   <i type="logical" name="LOPTICS"> F  </i>
   <v name="STM">      0.00000000      0.00000000      0.00000000      0.00000000      0.00000000      0.00000000      0.00000000</v>
  </separator>
  <separator name="performance" >
   <i type="int" name="NPAR">     8</i>
   <i type="int" name="NSIM">     4</i>
   <i type="int" name="NBLK">    -1</i>
   <i type="logical" name="LPLANE"> T  </i>
   <i type="logical" name="LSCALAPACK"> T  </i>
   <i type="logical" name="LSCAAWARE"> F  </i>
   <i type="logical" name="LSCALU"> F  </i>
   <i type="logical" name="LASYNC"> F  </i>
   <i type="logical" name="LORBITALREAL"> F  </i>
  </separator>
  <separator name="miscellaneous" >
   <i type="int" name="IDIOT">     3</i>
   <i type="int" name="PHON_NSTRUCT">    -1</i>
   <i type="logical" name="LMUSIC"> F  </i>
   <v name="POMASS">    132.90000000     35.45300000</v>
   <v name="DARWINR">      0.00000000      0.00000000</v>
   <v name="DARWINV">      1.00000000      1.00000000</v>
   <i type="logical" name="LCORR"> T  </i>
  </separator>
  <i type="logical" name="GGA_COMPAT"> T  </i>
  <i type="logical" name="LBERRY"> F  </i>
  <i type="int" name="ICORELEVEL">     0</i>
  <i type="logical" name="LDAU"> F  </i>
  <i type="int" name="I_CONSTRAINED_M">     0</i>
  <separator name="electronic exchange-correlation" >
   <i type="string" name="GGA    ">PE</i>
   <i type="string" name="XC_C">1</i>
   <i type="int" name="VOSKOWN">     0</i>
   <i type="logical" name="LHFCALC"> F  </i>
   <i type="string" name="PRECFOCK"></i>
   <i type="logical" name="LSYMGRAD"> F  </i>
   <i type="logical" name="LHFONE"> F  </i>
   <i type="logical" name="LRHFCALC"> F  </i>
   <i type="logical" name="LTHOMAS"> F  </i>
   <i type="logical" name="LMODELHF"> F  </i>
   <i type="logical" name="LFOCKACE"> F  </i>
   <i name="ENCUT4O">     -1.00000000</i>
   <i type="int" name="EXXOEP">     0</i>
   <i type="int" name="FOURORBIT">     0</i>
   <i name="AEXX">      0.00000000</i>
   <i name="HFALPHA">      0.00000000</i>
   <i name="MCALPHA">      0.00000000</i>
   <i name="ALDAX">      1.00000000</i>
   <i name="AGGAX">      1.00000000</i>
   <i name="AMGGAX">      1.00000000</i>
   <i name="ALDAC">      1.00000000</i>
   <i name="AGGAC">      1.00000000</i>
   <i name="AMGGAC">      1.00000000</i>
   <i type="int" name="NKREDX">     1</i>
   <i type="int" name="NKREDY">     1</i>
   <i type="int" name="NKREDZ">     1</i>
   <i type="logical" name="SHIFTRED"> F  </i>
   <i type="logical" name="ODDONLY"> F  </i>
   <i type="logical" name="EVENONLY"> F  </i>
   <i type="int" name="LMAXFOCK">     0</i>
   <i type="int" name="NMAXFOCKAE">     0</i>
   <i type="logical" name="LFOCKAEDFT"> F  </i>
   <i name="HFSCREEN">      0.00000000</i>
   <i name="HFSCREENC">      0.00000000</i>
   <i type="int" name="NBANDSGWLOW">     0</i>
  </separator>
  <separator name="vdW DFT" >
   <i type="logical" name="LUSE_VDW"> F  </i>
   <i type="int" name="IVDW_NL">    -1</i>
   <i type="logical" name="LSPIN_VDW"> F  </i>
   <i name="ZAB_VDW">     -0.84910000</i>
   <i name="GAMMA_VDW">      1.39626340</i>
   <i name="ALPHA_VDW">      0.00000000</i>
   <i name="PARAM1">      0.12340000</i>
   <i name="PARAM2">      1.00000000</i>
   <i name="BPARAM">      6.30000000</i>
   <i name="CPARAM">      0.00930000</i>
  </separator>
  <separator name="model GW" >
   <i type="int" name="MODEL_GW">     0</i>
   <i name="MODEL_EPS0">     21.34448344</i>
   <i name="MODEL_ALPHA">      1.00000000</i>
  </separator>
  <separator name="linear response parameters" >
   <i type="logical" name="LEPSILON"> F  </i>
   <i type="logical" name="LRPA"> F  </i>
   <i type="logical" name="LNABLA"> F  </i>
   <i type="logical" name="LVEL"> F  </i>
   <i name="CSHIFT">      0.10000000</i>
   <i name="OMEGAMAX">     -1.00000000</i>
   <i name="DEG_THRESHOLD">      0.00200000</i>
   <i name="RTIME">     -0.10000000</i>
   <i name="WPLASMAI">      0.00000000</i>
   <v name="DFIELD">      0.00000000      0.00000000      0.00000000</v>
   <v name="WPLASMA">      0.00000000      0.00000000      0.00000000      0.00000000      0.00000000      0.00000000      0.00000000      0.00000000      0.00000000</v>
  </separator>
  <separator name="orbital magnetization" >
   <i type="logical" name="NUCIND"> F  </i>
   <v name="MAGPOS">      0.00000000      0.00000000      0.00000000</v>
   <i type="logical" name="LNICSALL"> T  </i>
   <i type="logical" name="ORBITALMAG"> F  </i>
   <i type="logical" name="LMAGBLOCH"> F  </i>
   <i type="logical" name="LCHIMAG"> F  </i>
   <i type="logical" name="LGAUGE"> T  </i>
   <i type="int" name="MAGATOM">     0</i>
   <v name="MAGDIPOL">      0.00000000      0.00000000      0.00000000</v>
   <v name="AVECCONST">      0.00000000      0.00000000      0.00000000</v>
  </separator>
  <separator name="response functions" >
   <i type="logical" name="LALL_IN_ONE"> F  </i>
   <i type="int" name="IALL_IN_ONE">    -1</i>
   <i type="int" name="NBANDS_WAVE">    -1</i>
   <i type="logical" name="LFINITE_TEMPERATURE"> F  </i>
   <i type="logical" name="LADDER"> F  </i>
   <i type="logical" name="LRPAFORCE"> F  </i>
   <i type="logical" name="LFXC"> F  </i>
   <i type="logical" name="LHARTREE"> T  </i>
   <i type="int" name="IBSE">     0</i>
   <v type="int" name="KPOINT">    -1     0     0     0</v>
   <i type="logical" name="LTCTC"> F  </i>
   <i type="logical" name="LTCTE"> F  </i>
   <i type="logical" name="LTETE"> F  </i>
   <i type="logical" name="LTRIPLET"> F  </i>
   <i type="logical" name="LFXCEPS"> F  </i>
   <i type="logical" name="LFXHEG"> F  </i>
   <i type="int" name="NATURALO">     2</i>
   <i type="logical" name="LHOLEGF"> F  </i>
   <i type="logical" name="L2ORDER"> F  </i>
   <i type="logical" name="LDMP1"> F  </i>
   <i type="logical" name="LMP2LT"> F  </i>
   <i type="logical" name="LSMP2LT"> F  </i>
   <i type="logical" name="LGWLF"> F  </i>
   <i name="ENCUTGW">     -1.60000002</i>
   <i name="ENCUTGWSOFT">     -1.60000002</i>
   <i name="ENCUTLF">     -1.00000000</i>
   <i type="logical" name="ESF_SPLINES"> F  </i>
   <i name="ESF_CONV">      0.01000000</i>
   <i type="int" name="ESF_NINTER">    15</i>
   <i type="int" name="LMAXMP2">    -1</i>
   <i name="SCISSOR">      0.00000000</i>
   <i type="int" name="NOMEGA">     0</i>
   <i type="int" name="NOMEGAR">     0</i>
   <i type="int" name="NBANDSGW">    -1</i>
   <i type="int" name="NBANDSO">    -1</i>
   <i type="int" name="NBANDSV">    -1</i>
   <i type="int" name="NELMGW">     1</i>
   <i type="int" name="NELMHF">     1</i>
   <i type="int" name="DIM">     3</i>
   <i type="int" name="IESPILON">     4</i>
   <i type="int" name="ANTIRES">     0</i>
   <i name="OMEGAMAX">    -30.00000000</i>
   <i name="OMEGAMIN">    -30.00000000</i>
   <i name="OMEGATL">   -200.00000000</i>
   <i type="int" name="OMEGAGRID">     0</i>
   <i name="CSHIFT">     -0.10000000</i>
   <i type="logical" name="LSELFENERGY"> F  </i>
   <i type="logical" name="LSPECTRAL"> F  </i>
   <i type="logical" name="LSPECTRALGW"> F  </i>
   <i type="logical" name="LSINGLES"> F  </i>
   <i type="logical" name="LFERMIGW"> F  </i>
   <i type="logical" name="ODDONLYGW"> F  </i>
   <i type="logical" name="EVENONLYGW"> F  </i>
   <i type="int" name="NKREDLFX">     1</i>
   <i type="int" name="NKREDLFY">     1</i>
   <i type="int" name="NKREDLFZ">     1</i>
   <i type="int" name="MAXMEM">  2800</i>
   <i type="int" name="TELESCOPE">     0</i>
   <i type="int" name="NTAUPAR">    -1</i>
   <i type="int" name="NOMEGAPAR">    -1</i>
   <i name="DAMP_NEWTON">      0.80000001</i>
   <i name="LAMBDA">      1.00000000</i>
  </separator>
  <separator name="External order field" >
   <i name="OFIELD_KAPPA">      0.00000000</i>
   <v name="OFIELD_K">      0.00000000      0.00000000      0.00000000</v>
   <i name="OFIELD_Q6_NEAR">      0.00000000</i>
   <i name="OFIELD_Q6_FAR">      0.00000000</i>
   <i name="OFIELD_A">      0.00000000</i>
  </separator>
  <separator name="optional k-points parameters" >
   <i type="int" name="KPOINTS_OPT_MODE">     1</i>
   <i type="logical" name="LKPOINTS_OPT"> F  </i>
  </separator>
 </parameters>
 <atominfo>
  <atoms>       8 </atoms>
  <types>       2 </types>
  <array name="atoms" >
   <dimension dim="1">ion</dimension>
   <field type="string">element</field>
   <field type="int">atomtype</field>
   <set>
    <rc><c>Cs</c><c>   1</c></rc>
    <rc><c>Cs</c><c>   1</c></rc>
    <rc><c>Cs</c><c>   1</c></rc>
    <rc><c>Cs</c><c>   1</c></rc>
    <rc><c>Cl</c><c>   2</c></rc>
    <rc><c>Cl</c><c>   2</c></rc>
    <rc><c>Cl</c><c>   2</c></rc>
    <rc><c>Cl</c><c>   2</c></rc>
   </set>
  </array>
  <array name="atomtypes" >
   <dimension dim="1">type</dimension>
   <field type="int">atomspertype</field>
   <field type="string">element</field>
   <field>mass</field>
   <field>valence</field>
   <field type="string">pseudopotential</field>
   <set>
    <rc><c>   4</c><c>Cs</c><c>    132.90000000</c><c>      9.00000000</c><c>  PAW_PBE Cs_sv 25Jan2019               </c></rc>
    <rc><c>   4</c><c>Cl</c><c>     35.45300000</c><c>      7.00000000</c><c>  PAW_PBE Cl 06Sep2000                  </c></rc>
   </set>
  </array>
 </atominfo>
 <structure name="initialpos" >
  <crystal>
   <varray name="basis" >
    <v>       8.28739668       8.28739668       0.00000000 </v>
    <v>      -4.14369834       4.14369834      -0.00000000 </v>
    <v>       0.00000000       0.00000000       4.14369834 </v>
   </varray>
   <i name="volume">    284.59311253 </i>
   <varray name="rec_basis" >
    <v>       0.06033258       0.06033258      -0.00000000 </v>
    <v>      -0.12066515       0.12066515       0.00000000 </v>
    <v>      -0.00000000      -0.00000000       0.24133031 </v>
   </varray>
  </crystal>
  <varray name="positions" >
   <v>       0.00072764       0.00072764       0.00072764 </v>
   <v>       0.25000000       0.50000000       0.00000000 </v>
   <v>       0.50000000       0.00000000       0.00000000 </v>
   <v>       0.75000000       0.50000000       0.00000000 </v>
   <v>       0.25000000       0.00000000       0.50000000 </v>
   <v>       0.50000000       0.50000000       0.50000000 </v>
   <v>       0.75000000       0.00000000       0.50000000 </v>
   <v>       0.00000000       0.50000000       0.50000000 </v>
  </varray>
 </structure>
 <calculation>
  <scstep>
   <time name="dav">    1.75    1.75</time>
   <time name="total">    1.78    1.78</time>
   <energy>
    <i name="alphaZ">    214.16676563 </i>
    <i name="ewald">  -3265.84535702 </i>
    <i name="hartreedc">   -531.75982985 </i>
    <i name="XCdc">   -120.86787987 </i>
    <i name="pawpsdc">   3246.12869203 </i>
    <i name="pawaedc">  -2972.40719683 </i>
    <i name="eentropy">     -0.00011479 </i>
    <i name="bandstr">     39.17364104 </i>
    <i name="atom">   3861.61514281 </i>
    <i name="e_fr_energy">    470.20386316 </i>
    <i name="e_wo_entrp">    470.20397795 </i>
    <i name="e_0_energy">    470.20392055 </i>
   </energy>
  </scstep>
  <scstep>
   <time name="dav">    2.20    2.20</time>
   <time name="total">    2.20    2.20</time>
   <energy>
    <i name="e_fr_energy">     16.50717539 </i>
    <i name="e_wo_entrp">     16.50717539 </i>
    <i name="e_0_energy">     16.50717539 </i>
   </energy>
  </scstep>
  <scstep>
   <time name="dav">    1.96    1.96</time>
   <time name="total">    1.96    1.96</time>
   <energy>
    <i name="e_fr_energy">    -27.12294738 </i>
    <i name="e_wo_entrp">    -27.12294738 </i>
    <i name="e_0_energy">    -27.12294738 </i>
   </energy>
  </scstep>
  <scstep>
   <time name="dav">    1.96    1.96</time>
   <time name="total">    1.96    1.96</time>
   <energy>
    <i name="e_fr_energy">    -27.79871713 </i>
    <i name="e_wo_entrp">    -27.79871713 </i>
    <i name="e_0_energy">    -27.79871713 </i>
   </energy>
  </scstep>
  <scstep>
   <time name="dav">    1.89    1.89</time>
   <time name="total">    2.00    2.00</time>
   <energy>
    <i name="e_fr_energy">    -27.81207789 </i>
    <i name="e_wo_entrp">    -27.81207789 </i>
    <i name="e_0_energy">    -27.81207789 </i>
   </energy>
  </scstep>
  <scstep>
   <time name="dav">    1.90    1.90</time>
   <time name="total">    2.03    2.03</time>
   <energy>
    <i name="e_fr_energy">    -26.30007235 </i>
    <i name="e_wo_entrp">    -26.30007235 </i>
    <i name="e_0_energy">    -26.30007235 </i>
   </energy>
  </scstep>
  <scstep>
   <time name="dav">    2.12    2.12</time>
   <time name="total">    2.24    2.24</time>
   <energy>
    <i name="e_fr_energy">    -26.13483354 </i>
    <i name="e_wo_entrp">    -26.13483354 </i>
    <i name="e_0_energy">    -26.13483354 </i>
   </energy>
  </scstep>
  <scstep>
   <time name="dav">    1.90    1.90</time>
   <time name="total">    2.03    2.03</time>
   <energy>
    <i name="e_fr_energy">    -26.13518342 </i>
    <i name="e_wo_entrp">    -26.13518342 </i>
    <i name="e_0_energy">    -26.13518342 </i>
   </energy>
  </scstep>
  <scstep>
   <time name="dav">    2.04    2.04</time>
   <time name="total">    2.17    2.17</time>
   <energy>
    <i name="e_fr_energy">    -26.13108931 </i>
    <i name="e_wo_entrp">    -26.13108931 </i>
    <i name="e_0_energy">    -26.13108931 </i>
   </energy>
  </scstep>
  <scstep>
   <time name="dav">    1.89    1.89</time>
   <time name="total">    2.02    2.02</time>
   <energy>
    <i name="e_fr_energy">    -26.13204314 </i>
    <i name="e_wo_entrp">    -26.13204314 </i>
    <i name="e_0_energy">    -26.13204314 </i>
   </energy>
  </scstep>
  <scstep>
   <time name="dav">    1.92    1.92</time>
   <time name="total">    2.05    2.05</time>
   <energy>
    <i name="e_fr_energy">    -26.13223749 </i>
    <i name="e_wo_entrp">    -26.13223749 </i>
    <i name="e_0_energy">    -26.13223749 </i>
   </energy>
  </scstep>
  <scstep>
   <time name="dav">    1.92    1.92</time>
   <time name="total">    2.04    2.04</time>
   <energy>
    <i name="e_fr_energy">    -26.13224857 </i>
    <i name="e_wo_entrp">    -26.13224857 </i>
    <i name="e_0_energy">    -26.13224857 </i>
   </energy>
  </scstep>
  <scstep>
   <time name="dav">    1.92    1.92</time>
   <time name="total">    2.04    2.04</time>
   <energy>
    <i name="e_fr_energy">    -26.13224680 </i>
    <i name="e_wo_entrp">    -26.13224680 </i>
    <i name="e_0_energy">    -26.13224680 </i>
   </energy>
  </scstep>
  <scstep>
   <time name="dav">    1.91    1.91</time>
   <time name="total">    2.04    2.04</time>
   <energy>
    <i name="e_fr_energy">    -26.13224645 </i>
    <i name="e_wo_entrp">    -26.13224645 </i>
    <i name="e_0_energy">    -26.13224645 </i>
   </energy>
  </scstep>
  <scstep>
   <time name="dav">    1.93    1.94</time>
   <time name="total">    2.06    2.06</time>
   <energy>
    <i name="e_fr_energy">    -26.13224649 </i>
    <i name="e_wo_entrp">    -26.13224649 </i>
    <i name="e_0_energy">    -26.13224649 </i>
   </energy>
  </scstep>
  <scstep>
   <time name="dav">    1.52    1.52</time>
   <time name="total">    1.55    1.55</time>
   <energy>
    <i name="alphaZ">    214.16676563 </i>
    <i name="ewald">  -3265.84535702 </i>
    <i name="hartreedc">   -554.75710884 </i>
    <i name="XCdc">   -118.49241851 </i>
    <i name="pawpsdc">   3633.66202731 </i>
    <i name="pawaedc">  -3361.15893338 </i>
    <i name="eentropy">     -0.00000000 </i>
    <i name="bandstr">   -435.32236449 </i>
    <i name="atom">   3861.61514281 </i>
    <i name="e_fr_energy">    -26.13224650 </i>
    <i name="e_wo_entrp">    -26.13224650 </i>
    <i name="e_0_energy">    -26.13224650 </i>
   </energy>
  </scstep>
  <structure>
   <crystal>
    <varray name="basis" >
     <v>       8.28739668       8.28739668       0.00000000 </v>
     <v>      -4.14369834       4.14369834      -0.00000000 </v>
     <v>       0.00000000       0.00000000       4.14369834 </v>
    </varray>
    <i name="volume">    284.59311253 </i>
    <varray name="rec_basis" >
     <v>       0.06033258       0.06033258      -0.00000000 </v>
     <v>      -0.12066515       0.12066515       0.00000000 </v>
     <v>      -0.00000000      -0.00000000       0.24133031 </v>
    </varray>
   </crystal>
   <varray name="positions" >
    <v>       0.00072764       0.00072764       0.00072764 </v>
    <v>       0.25000000       0.50000000       0.00000000 </v>
    <v>       0.50000000       0.00000000       0.00000000 </v>
    <v>       0.75000000       0.50000000       0.00000000 </v>
    <v>       0.25000000       0.00000000       0.50000000 </v>
    <v>       0.50000000       0.50000000       0.50000000 </v>
    <v>       0.75000000       0.00000000       0.50000000 </v>
    <v>       0.00000000       0.50000000       0.50000000 </v>
   </varray>
  </structure>
  <varray name="forces" >
   <v>      -0.00690544      -0.01547740      -0.00185241 </v>
   <v>       0.00092299       0.00283967      -0.00025350 </v>
   <v>       0.00271493       0.00274998      -0.00000487 </v>
   <v>       0.00093875       0.00280176      -0.00024779 </v>
   <v>       0.00184000       0.00222498       0.00061469 </v>
   <v>      -0.00214882      -0.00209451       0.00000154 </v>
   <v>       0.00172083       0.00211474       0.00056481 </v>
   <v>       0.00091676       0.00484076       0.00117752 </v>
  </varray>
  <varray name="stress" >
   <v>       7.40664699       0.00197829       0.00017355 </v>
   <v>       0.00197830       7.40730259       0.00065380 </v>
   <v>       0.00017360       0.00065381       7.40463265 </v>
  </varray>
  <energy>
   <i name="e_fr_energy">    -26.13224650 </i>
   <i name="e_wo_entrp">    -26.13224650 </i>
   <i name="e_0_energy">    -26.13224650 </i>
  </energy>
  <time name="totalsc">   34.09   34.11</time>
  <eigenvalues>
   <array>
    <dimension dim="1">band</dimension>
    <dimension dim="2">kpoint</dimension>
    <dimension dim="3">spin</dimension>
    <field>eigene</field>
    <field>occ</field>
    <set>
     <set comment="spin 1">
      <set comment="kpoint 1">
       <r>  -19.7966    1.0000 </r>
       <r>  -19.7232    1.0000 </r>
       <r>  -19.7221    1.0000 </r>
       <r>  -19.6531    1.0000 </r>
       <r>  -12.5585    1.0000 </r>
       <r>  -12.5505    1.0000 </r>
       <r>  -12.5454    1.0000 </r>
       <r>  -12.4675    1.0000 </r>
       <r>   -7.0331    1.0000 </r>
       <r>   -7.0329    1.0000 </r>
       <r>   -6.6872    1.0000 </r>
       <r>   -6.6821    1.0000 </r>
       <r>   -6.5085    1.0000 </r>
       <r>   -6.5056    1.0000 </r>
       <r>   -6.2938    1.0000 </r>
       <r>   -6.2935    1.0000 </r>
       <r>   -6.2935    1.0000 </r>
       <r>   -6.1747    1.0000 </r>
       <r>   -6.1733    1.0000 </r>
       <r>   -6.0759    1.0000 </r>
       <r>   -1.0681    1.0000 </r>
       <r>   -1.0670    1.0000 </r>
       <r>   -0.8188    1.0000 </r>
       <r>   -0.8185    1.0000 </r>
       <r>   -0.6451    1.0000 </r>
       <r>   -0.6442    1.0000 </r>
       <r>   -0.5173    1.0000 </r>
       <r>   -0.5157    1.0000 </r>
       <r>   -0.4426    1.0000 </r>
       <r>   -0.3951    1.0000 </r>
       <r>   -0.3950    1.0000 </r>
       <r>   -0.3948    1.0000 </r>
       <r>    4.7979    0.0000 </r>
       <r>    5.0131    0.0000 </r>
       <r>    5.0132    0.0000 </r>
       <r>    5.5407    0.0000 </r>
       <r>    5.6176    0.0000 </r>
       <r>    5.8566    0.0000 </r>
       <r>    5.8581    0.0000 </r>
       <r>    6.4670    0.0000 </r>
      </set>
      <set comment="kpoint 2">
       <r>  -19.7910    1.0000 </r>
       <r>  -19.7502    1.0000 </r>
       <r>  -19.6957    1.0000 </r>
       <r>  -19.6582    1.0000 </r>
       <r>  -12.5631    1.0000 </r>
       <r>  -12.5531    1.0000 </r>
       <r>  -12.5291    1.0000 </r>
       <r>  -12.4770    1.0000 </r>
       <r>   -7.0079    1.0000 </r>
       <r>   -6.9835    1.0000 </r>
       <r>   -6.8223    1.0000 </r>
       <r>   -6.6747    1.0000 </r>
       <r>   -6.5407    1.0000 </r>
       <r>   -6.3861    1.0000 </r>
       <r>   -6.3251    1.0000 </r>
       <r>   -6.2982    1.0000 </r>
       <r>   -6.2841    1.0000 </r>
       <r>   -6.2174    1.0000 </r>
       <r>   -6.1337    1.0000 </r>
       <r>   -6.0824    1.0000 </r>
       <r>   -1.0668    1.0000 </r>
       <r>   -0.9425    1.0000 </r>
       <r>   -0.8660    1.0000 </r>
       <r>   -0.8072    1.0000 </r>
       <r>   -0.7170    1.0000 </r>
       <r>   -0.5621    1.0000 </r>
       <r>   -0.5138    1.0000 </r>
       <r>   -0.4929    1.0000 </r>
       <r>   -0.4921    1.0000 </r>
       <r>   -0.4556    1.0000 </r>
       <r>   -0.4185    1.0000 </r>
       <r>   -0.4102    1.0000 </r>
       <r>    4.9841    0.0000 </r>
       <r>    5.0989    0.0000 </r>
       <r>    5.1645    0.0000 </r>
       <r>    5.6044    0.0000 </r>
       <r>    5.6239    0.0000 </r>
       <r>    5.7423    0.0000 </r>
       <r>    5.8789    0.0000 </r>
       <r>    6.0661    0.0000 </r>
      </set>
      <set comment="kpoint 3">
       <r>  -19.7781    1.0000 </r>
       <r>  -19.7708    1.0000 </r>
       <r>  -19.6760    1.0000 </r>
       <r>  -19.6703    1.0000 </r>
       <r>  -12.5645    1.0000 </r>
       <r>  -12.5553    1.0000 </r>
       <r>  -12.5061    1.0000 </r>
       <r>  -12.4966    1.0000 </r>
       <r>   -6.9402    1.0000 </r>
       <r>   -6.9294    1.0000 </r>
       <r>   -6.8550    1.0000 </r>
       <r>   -6.8460    1.0000 </r>
       <r>   -6.4150    1.0000 </r>
       <r>   -6.4115    1.0000 </r>
       <r>   -6.3242    1.0000 </r>
       <r>   -6.3194    1.0000 </r>
       <r>   -6.2604    1.0000 </r>
       <r>   -6.2530    1.0000 </r>
       <r>   -6.1049    1.0000 </r>
       <r>   -6.0994    1.0000 </r>
       <r>   -0.9784    1.0000 </r>
       <r>   -0.9714    1.0000 </r>
       <r>   -0.7766    1.0000 </r>
       <r>   -0.7684    1.0000 </r>
       <r>   -0.7228    1.0000 </r>
       <r>   -0.7148    1.0000 </r>
       <r>   -0.4931    1.0000 </r>
       <r>   -0.4855    1.0000 </r>
       <r>   -0.4825    1.0000 </r>
       <r>   -0.4759    1.0000 </r>
       <r>   -0.4532    1.0000 </r>
       <r>   -0.4441    1.0000 </r>
       <r>    5.3119    0.0000 </r>
       <r>    5.3219    0.0000 </r>
       <r>    5.4789    0.0000 </r>
       <r>    5.4841    0.0000 </r>
       <r>    5.5963    0.0000 </r>
       <r>    5.6072    0.0000 </r>
       <r>    5.7411    0.0000 </r>
       <r>    5.7495    0.0000 </r>
      </set>
      <set comment="kpoint 4">
       <r>  -19.7892    1.0000 </r>
       <r>  -19.7225    1.0000 </r>
       <r>  -19.7215    1.0000 </r>
       <r>  -19.6598    1.0000 </r>
       <r>  -12.5641    1.0000 </r>
       <r>  -12.5585    1.0000 </r>
       <r>  -12.5507    1.0000 </r>
       <r>  -12.4799    1.0000 </r>
       <r>   -7.0001    1.0000 </r>
       <r>   -6.9690    1.0000 </r>
       <r>   -6.7313    1.0000 </r>
       <r>   -6.7287    1.0000 </r>
       <r>   -6.4216    1.0000 </r>
       <r>   -6.4210    1.0000 </r>
       <r>   -6.3345    1.0000 </r>
       <r>   -6.3000    1.0000 </r>
       <r>   -6.2812    1.0000 </r>
       <r>   -6.1719    1.0000 </r>
       <r>   -6.1707    1.0000 </r>
       <r>   -6.0845    1.0000 </r>
       <r>   -1.1607    1.0000 </r>
       <r>   -1.1603    1.0000 </r>
       <r>   -0.8797    1.0000 </r>
       <r>   -0.8033    1.0000 </r>
       <r>   -0.6359    1.0000 </r>
       <r>   -0.6356    1.0000 </r>
       <r>   -0.5369    1.0000 </r>
       <r>   -0.5354    1.0000 </r>
       <r>   -0.5201    1.0000 </r>
       <r>   -0.4598    1.0000 </r>
       <r>   -0.4256    1.0000 </r>
       <r>   -0.4148    1.0000 </r>
       <r>    5.0369    0.0000 </r>
       <r>    5.1259    0.0000 </r>
       <r>    5.2103    0.0000 </r>
       <r>    5.6213    0.0000 </r>
       <r>    5.7803    0.0000 </r>
       <r>    5.9122    0.0000 </r>
       <r>    5.9144    0.0000 </r>
       <r>    6.5725    0.0000 </r>
      </set>
      <set comment="kpoint 5">
       <r>  -19.7841    1.0000 </r>
       <r>  -19.7468    1.0000 </r>
       <r>  -19.6979    1.0000 </r>
       <r>  -19.6642    1.0000 </r>
       <r>  -12.5687    1.0000 </r>
       <r>  -12.5573    1.0000 </r>
       <r>  -12.5385    1.0000 </r>
       <r>  -12.4889    1.0000 </r>
       <r>   -6.9934    1.0000 </r>
       <r>   -6.9051    1.0000 </r>
       <r>   -6.8472    1.0000 </r>
       <r>   -6.6041    1.0000 </r>
       <r>   -6.5846    1.0000 </r>
       <r>   -6.3903    1.0000 </r>
       <r>   -6.3114    1.0000 </r>
       <r>   -6.2723    1.0000 </r>
       <r>   -6.2722    1.0000 </r>
       <r>   -6.2107    1.0000 </r>
       <r>   -6.1353    1.0000 </r>
       <r>   -6.0901    1.0000 </r>
       <r>   -1.1442    1.0000 </r>
       <r>   -1.0524    1.0000 </r>
       <r>   -0.9261    1.0000 </r>
       <r>   -0.7954    1.0000 </r>
       <r>   -0.7077    1.0000 </r>
       <r>   -0.6268    1.0000 </r>
       <r>   -0.5547    1.0000 </r>
       <r>   -0.5325    1.0000 </r>
       <r>   -0.5123    1.0000 </r>
       <r>   -0.4729    1.0000 </r>
       <r>   -0.4310    1.0000 </r>
       <r>   -0.4304    1.0000 </r>
       <r>    5.1330    0.0000 </r>
       <r>    5.2069    0.0000 </r>
       <r>    5.4373    0.0000 </r>
       <r>    5.6266    0.0000 </r>
       <r>    5.7049    0.0000 </r>
       <r>    5.8884    0.0000 </r>
       <r>    5.9801    0.0000 </r>
       <r>    6.1400    0.0000 </r>
      </set>
      <set comment="kpoint 6">
       <r>  -19.7841    1.0000 </r>
       <r>  -19.7468    1.0000 </r>
       <r>  -19.6979    1.0000 </r>
       <r>  -19.6642    1.0000 </r>
       <r>  -12.5687    1.0000 </r>
       <r>  -12.5574    1.0000 </r>
       <r>  -12.5385    1.0000 </r>
       <r>  -12.4889    1.0000 </r>
       <r>   -6.9935    1.0000 </r>
       <r>   -6.9048    1.0000 </r>
       <r>   -6.8475    1.0000 </r>
       <r>   -6.6044    1.0000 </r>
       <r>   -6.5842    1.0000 </r>
       <r>   -6.3904    1.0000 </r>
       <r>   -6.3113    1.0000 </r>
       <r>   -6.2723    1.0000 </r>
       <r>   -6.2722    1.0000 </r>
       <r>   -6.2107    1.0000 </r>
       <r>   -6.1353    1.0000 </r>
       <r>   -6.0901    1.0000 </r>
       <r>   -1.1442    1.0000 </r>
       <r>   -1.0524    1.0000 </r>
       <r>   -0.9261    1.0000 </r>
       <r>   -0.7954    1.0000 </r>
       <r>   -0.7077    1.0000 </r>
       <r>   -0.6268    1.0000 </r>
       <r>   -0.5547    1.0000 </r>
       <r>   -0.5326    1.0000 </r>
       <r>   -0.5122    1.0000 </r>
       <r>   -0.4730    1.0000 </r>
       <r>   -0.4311    1.0000 </r>
       <r>   -0.4304    1.0000 </r>
       <r>    5.1330    0.0000 </r>
       <r>    5.2069    0.0000 </r>
       <r>    5.4373    0.0000 </r>
       <r>    5.6266    0.0000 </r>
       <r>    5.7049    0.0000 </r>
       <r>    5.8885    0.0000 </r>
       <r>    5.9801    0.0000 </r>
       <r>    6.1400    0.0000 </r>
      </set>
      <set comment="kpoint 7">
       <r>  -19.7725    1.0000 </r>
       <r>  -19.7653    1.0000 </r>
       <r>  -19.6805    1.0000 </r>
       <r>  -19.6747    1.0000 </r>
       <r>  -12.5691    1.0000 </r>
       <r>  -12.5600    1.0000 </r>
       <r>  -12.5172    1.0000 </r>
       <r>  -12.5076    1.0000 </r>
       <r>   -6.9425    1.0000 </r>
       <r>   -6.9390    1.0000 </r>
       <r>   -6.7629    1.0000 </r>
       <r>   -6.7612    1.0000 </r>
       <r>   -6.4865    1.0000 </r>
       <r>   -6.4861    1.0000 </r>
       <r>   -6.2672    1.0000 </r>
       <r>   -6.2655    1.0000 </r>
       <r>   -6.2505    1.0000 </r>
       <r>   -6.2431    1.0000 </r>
       <r>   -6.1101    1.0000 </r>
       <r>   -6.1045    1.0000 </r>
       <r>   -1.0421    1.0000 </r>
       <r>   -1.0387    1.0000 </r>
       <r>   -0.8461    1.0000 </r>
       <r>   -0.8438    1.0000 </r>
       <r>   -0.7649    1.0000 </r>
       <r>   -0.7605    1.0000 </r>
       <r>   -0.5110    1.0000 </r>
       <r>   -0.5005    1.0000 </r>
       <r>   -0.4813    1.0000 </r>
       <r>   -0.4774    1.0000 </r>
       <r>   -0.4735    1.0000 </r>
       <r>   -0.4643    1.0000 </r>
       <r>    5.3101    0.0000 </r>
       <r>    5.3161    0.0000 </r>
       <r>    5.6273    0.0000 </r>
       <r>    5.6290    0.0000 </r>
       <r>    5.8566    0.0000 </r>
       <r>    5.8643    0.0000 </r>
       <r>    5.9383    0.0000 </r>
       <r>    5.9417    0.0000 </r>
      </set>
      <set comment="kpoint 8">
       <r>  -19.7686    1.0000 </r>
       <r>  -19.7209    1.0000 </r>
       <r>  -19.7202    1.0000 </r>
       <r>  -19.6785    1.0000 </r>
       <r>  -12.5794    1.0000 </r>
       <r>  -12.5765    1.0000 </r>
       <r>  -12.5581    1.0000 </r>
       <r>  -12.5091    1.0000 </r>
       <r>   -6.9063    1.0000 </r>
       <r>   -6.8037    1.0000 </r>
       <r>   -6.7811    1.0000 </r>
       <r>   -6.7796    1.0000 </r>
       <r>   -6.4466    1.0000 </r>
       <r>   -6.3350    1.0000 </r>
       <r>   -6.2771    1.0000 </r>
       <r>   -6.2766    1.0000 </r>
       <r>   -6.2467    1.0000 </r>
       <r>   -6.1657    1.0000 </r>
       <r>   -6.1649    1.0000 </r>
       <r>   -6.1097    1.0000 </r>
       <r>   -1.3578    1.0000 </r>
       <r>   -1.3575    1.0000 </r>
       <r>   -1.0065    1.0000 </r>
       <r>   -0.7884    1.0000 </r>
       <r>   -0.7587    1.0000 </r>
       <r>   -0.6242    1.0000 </r>
       <r>   -0.6239    1.0000 </r>
       <r>   -0.5802    1.0000 </r>
       <r>   -0.5790    1.0000 </r>
       <r>   -0.5027    1.0000 </r>
       <r>   -0.4954    1.0000 </r>
       <r>   -0.4615    1.0000 </r>
       <r>    5.4024    0.0000 </r>
       <r>    5.6481    0.0000 </r>
       <r>    5.7734    0.0000 </r>
       <r>    5.7898    0.0000 </r>
       <r>    5.9752    0.0000 </r>
       <r>    5.9769    0.0000 </r>
       <r>    6.1881    0.0000 </r>
       <r>    6.8752    0.0000 </r>
      </set>
      <set comment="kpoint 9">
       <r>  -19.7649    1.0000 </r>
       <r>  -19.7378    1.0000 </r>
       <r>  -19.7042    1.0000 </r>
       <r>  -19.6813    1.0000 </r>
       <r>  -12.5813    1.0000 </r>
       <r>  -12.5668    1.0000 </r>
       <r>  -12.5581    1.0000 </r>
       <r>  -12.5173    1.0000 </r>
       <r>   -6.9172    1.0000 </r>
       <r>   -6.8551    1.0000 </r>
       <r>   -6.7311    1.0000 </r>
       <r>   -6.6927    1.0000 </r>
       <r>   -6.5054    1.0000 </r>
       <r>   -6.4130    1.0000 </r>
       <r>   -6.2832    1.0000 </r>
       <r>   -6.2398    1.0000 </r>
       <r>   -6.2119    1.0000 </r>
       <r>   -6.1933    1.0000 </r>
       <r>   -6.1411    1.0000 </r>
       <r>   -6.1129    1.0000 </r>
       <r>   -1.3155    1.0000 </r>
       <r>   -1.2739    1.0000 </r>
       <r>   -1.0595    1.0000 </r>
       <r>   -0.8845    1.0000 </r>
       <r>   -0.7515    1.0000 </r>
       <r>   -0.6810    1.0000 </r>
       <r>   -0.5731    1.0000 </r>
       <r>   -0.5647    1.0000 </r>
       <r>   -0.5579    1.0000 </r>
       <r>   -0.5092    1.0000 </r>
       <r>   -0.4987    1.0000 </r>
       <r>   -0.4771    1.0000 </r>
       <r>    5.3920    0.0000 </r>
       <r>    5.6868    0.0000 </r>
       <r>    5.7344    0.0000 </r>
       <r>    5.8802    0.0000 </r>
       <r>    6.0554    0.0000 </r>
       <r>    6.1290    0.0000 </r>
       <r>    6.2984    0.0000 </r>
       <r>    6.5056    0.0000 </r>
      </set>
      <set comment="kpoint 10">
       <r>  -19.7650    1.0000 </r>
       <r>  -19.7378    1.0000 </r>
       <r>  -19.7042    1.0000 </r>
       <r>  -19.6813    1.0000 </r>
       <r>  -12.5812    1.0000 </r>
       <r>  -12.5668    1.0000 </r>
       <r>  -12.5580    1.0000 </r>
       <r>  -12.5173    1.0000 </r>
       <r>   -6.9173    1.0000 </r>
       <r>   -6.8549    1.0000 </r>
       <r>   -6.7311    1.0000 </r>
       <r>   -6.6927    1.0000 </r>
       <r>   -6.5055    1.0000 </r>
       <r>   -6.4130    1.0000 </r>
       <r>   -6.2832    1.0000 </r>
       <r>   -6.2398    1.0000 </r>
       <r>   -6.2119    1.0000 </r>
       <r>   -6.1933    1.0000 </r>
       <r>   -6.1411    1.0000 </r>
       <r>   -6.1129    1.0000 </r>
       <r>   -1.3155    1.0000 </r>
       <r>   -1.2739    1.0000 </r>
       <r>   -1.0595    1.0000 </r>
       <r>   -0.8845    1.0000 </r>
       <r>   -0.7515    1.0000 </r>
       <r>   -0.6810    1.0000 </r>
       <r>   -0.5731    1.0000 </r>
       <r>   -0.5647    1.0000 </r>
       <r>   -0.5578    1.0000 </r>
       <r>   -0.5093    1.0000 </r>
       <r>   -0.4987    1.0000 </r>
       <r>   -0.4771    1.0000 </r>
       <r>    5.3921    0.0000 </r>
       <r>    5.6869    0.0000 </r>
       <r>    5.7343    0.0000 </r>
       <r>    5.8802    0.0000 </r>
       <r>    6.0553    0.0000 </r>
       <r>    6.1290    0.0000 </r>
       <r>    6.2984    0.0000 </r>
       <r>    6.5056    0.0000 </r>
      </set>
      <set comment="kpoint 11">
       <r>  -19.7573    1.0000 </r>
       <r>  -19.7503    1.0000 </r>
       <r>  -19.6934    1.0000 </r>
       <r>  -19.6874    1.0000 </r>
       <r>  -12.5783    1.0000 </r>
       <r>  -12.5691    1.0000 </r>
       <r>  -12.5429    1.0000 </r>
       <r>  -12.5334    1.0000 </r>
       <r>   -6.9039    1.0000 </r>
       <r>   -6.9034    1.0000 </r>
       <r>   -6.5993    1.0000 </r>
       <r>   -6.5982    1.0000 </r>
       <r>   -6.5823    1.0000 </r>
       <r>   -6.5804    1.0000 </r>
       <r>   -6.2238    1.0000 </r>
       <r>   -6.2228    1.0000 </r>
       <r>   -6.2227    1.0000 </r>
       <r>   -6.2167    1.0000 </r>
       <r>   -6.1262    1.0000 </r>
       <r>   -6.1203    1.0000 </r>
       <r>   -1.1894    1.0000 </r>
       <r>   -1.1887    1.0000 </r>
       <r>   -1.0885    1.0000 </r>
       <r>   -1.0865    1.0000 </r>
       <r>   -0.7258    1.0000 </r>
       <r>   -0.7254    1.0000 </r>
       <r>   -0.5490    1.0000 </r>
       <r>   -0.5387    1.0000 </r>
       <r>   -0.5201    1.0000 </r>
       <r>   -0.5176    1.0000 </r>
       <r>   -0.5172    1.0000 </r>
       <r>   -0.5108    1.0000 </r>
       <r>    5.4627    0.0000 </r>
       <r>    5.4678    0.0000 </r>
       <r>    6.0463    0.0000 </r>
       <r>    6.0532    0.0000 </r>
       <r>    6.0800    0.0000 </r>
       <r>    6.0807    0.0000 </r>
       <r>    6.6168    0.0000 </r>
       <r>    6.6251    0.0000 </r>
      </set>
      <set comment="kpoint 12">
       <r>  -19.7398    1.0000 </r>
       <r>  -19.7199    1.0000 </r>
       <r>  -19.7194    1.0000 </r>
       <r>  -19.7054    1.0000 </r>
       <r>  -12.5928    1.0000 </r>
       <r>  -12.5907    1.0000 </r>
       <r>  -12.5561    1.0000 </r>
       <r>  -12.5388    1.0000 </r>
       <r>   -6.8063    1.0000 </r>
       <r>   -6.8058    1.0000 </r>
       <r>   -6.7650    1.0000 </r>
       <r>   -6.6028    1.0000 </r>
       <r>   -6.5979    1.0000 </r>
       <r>   -6.4308    1.0000 </r>
       <r>   -6.1995    1.0000 </r>
       <r>   -6.1744    1.0000 </r>
       <r>   -6.1741    1.0000 </r>
       <r>   -6.1615    1.0000 </r>
       <r>   -6.1604    1.0000 </r>
       <r>   -6.1485    1.0000 </r>
       <r>   -1.5100    1.0000 </r>
       <r>   -1.5097    1.0000 </r>
       <r>   -1.0815    1.0000 </r>
       <r>   -1.0112    1.0000 </r>
       <r>   -0.6880    1.0000 </r>
       <r>   -0.6195    1.0000 </r>
       <r>   -0.6189    1.0000 </r>
       <r>   -0.6144    1.0000 </r>
       <r>   -0.6135    1.0000 </r>
       <r>   -0.5974    1.0000 </r>
       <r>   -0.5173    1.0000 </r>
       <r>   -0.5043    1.0000 </r>
       <r>    5.7433    0.0000 </r>
       <r>    5.8969    0.0000 </r>
       <r>    6.0064    0.0000 </r>
       <r>    6.0070    0.0000 </r>
       <r>    6.2807    0.0000 </r>
       <r>    6.4974    0.0000 </r>
       <r>    6.6375    0.0000 </r>
       <r>    7.1097    0.0000 </r>
      </set>
      <set comment="kpoint 13">
       <r>  -19.7384    1.0000 </r>
       <r>  -19.7257    1.0000 </r>
       <r>  -19.7147    1.0000 </r>
       <r>  -19.7058    1.0000 </r>
       <r>  -12.5894    1.0000 </r>
       <r>  -12.5827    1.0000 </r>
       <r>  -12.5611    1.0000 </r>
       <r>  -12.5455    1.0000 </r>
       <r>   -6.8253    1.0000 </r>
       <r>   -6.7945    1.0000 </r>
       <r>   -6.7680    1.0000 </r>
       <r>   -6.6480    1.0000 </r>
       <r>   -6.5278    1.0000 </r>
       <r>   -6.3656    1.0000 </r>
       <r>   -6.2540    1.0000 </r>
       <r>   -6.1958    1.0000 </r>
       <r>   -6.1793    1.0000 </r>
       <r>   -6.1719    1.0000 </r>
       <r>   -6.1546    1.0000 </r>
       <r>   -6.1477    1.0000 </r>
       <r>   -1.4501    1.0000 </r>
       <r>   -1.4401    1.0000 </r>
       <r>   -1.1468    1.0000 </r>
       <r>   -1.0917    1.0000 </r>
       <r>   -0.6807    1.0000 </r>
       <r>   -0.6422    1.0000 </r>
       <r>   -0.6024    1.0000 </r>
       <r>   -0.5990    1.0000 </r>
       <r>   -0.5966    1.0000 </r>
       <r>   -0.5906    1.0000 </r>
       <r>   -0.5320    1.0000 </r>
       <r>   -0.5198    1.0000 </r>
       <r>    5.7624    0.0000 </r>
       <r>    5.8790    0.0000 </r>
       <r>    5.9657    0.0000 </r>
       <r>    6.0972    0.0000 </r>
       <r>    6.3267    0.0000 </r>
       <r>    6.6103    0.0000 </r>
       <r>    6.8571    0.0000 </r>
       <r>    6.9007    0.0000 </r>
      </set>
      <set comment="kpoint 14">
       <r>  -19.7384    1.0000 </r>
       <r>  -19.7256    1.0000 </r>
       <r>  -19.7147    1.0000 </r>
       <r>  -19.7057    1.0000 </r>
       <r>  -12.5893    1.0000 </r>
       <r>  -12.5828    1.0000 </r>
       <r>  -12.5611    1.0000 </r>
       <r>  -12.5455    1.0000 </r>
       <r>   -6.8251    1.0000 </r>
       <r>   -6.7951    1.0000 </r>
       <r>   -6.7675    1.0000 </r>
       <r>   -6.6480    1.0000 </r>
       <r>   -6.5279    1.0000 </r>
       <r>   -6.3656    1.0000 </r>
       <r>   -6.2540    1.0000 </r>
       <r>   -6.1958    1.0000 </r>
       <r>   -6.1793    1.0000 </r>
       <r>   -6.1718    1.0000 </r>
       <r>   -6.1548    1.0000 </r>
       <r>   -6.1476    1.0000 </r>
       <r>   -1.4501    1.0000 </r>
       <r>   -1.4401    1.0000 </r>
       <r>   -1.1468    1.0000 </r>
       <r>   -1.0917    1.0000 </r>
       <r>   -0.6807    1.0000 </r>
       <r>   -0.6421    1.0000 </r>
       <r>   -0.6024    1.0000 </r>
       <r>   -0.5989    1.0000 </r>
       <r>   -0.5965    1.0000 </r>
       <r>   -0.5907    1.0000 </r>
       <r>   -0.5320    1.0000 </r>
       <r>   -0.5197    1.0000 </r>
       <r>    5.7624    0.0000 </r>
       <r>    5.8790    0.0000 </r>
       <r>    5.9656    0.0000 </r>
       <r>    6.0972    0.0000 </r>
       <r>    6.3267    0.0000 </r>
       <r>    6.6103    0.0000 </r>
       <r>    6.8571    0.0000 </r>
       <r>    6.9007    0.0000 </r>
      </set>
      <set comment="kpoint 15">
       <r>  -19.7362    1.0000 </r>
       <r>  -19.7295    1.0000 </r>
       <r>  -19.7126    1.0000 </r>
       <r>  -19.7062    1.0000 </r>
       <r>  -12.5820    1.0000 </r>
       <r>  -12.5727    1.0000 </r>
       <r>  -12.5668    1.0000 </r>
       <r>  -12.5575    1.0000 </r>
       <r>   -6.8233    1.0000 </r>
       <r>   -6.8216    1.0000 </r>
       <r>   -6.7156    1.0000 </r>
       <r>   -6.7139    1.0000 </r>
       <r>   -6.3905    1.0000 </r>
       <r>   -6.3881    1.0000 </r>
       <r>   -6.2583    1.0000 </r>
       <r>   -6.2567    1.0000 </r>
       <r>   -6.1884    1.0000 </r>
       <r>   -6.1818    1.0000 </r>
       <r>   -6.1530    1.0000 </r>
       <r>   -6.1468    1.0000 </r>
       <r>   -1.3020    1.0000 </r>
       <r>   -1.2996    1.0000 </r>
       <r>   -1.2722    1.0000 </r>
       <r>   -1.2692    1.0000 </r>
       <r>   -0.6643    1.0000 </r>
       <r>   -0.6630    1.0000 </r>
       <r>   -0.5886    1.0000 </r>
       <r>   -0.5869    1.0000 </r>
       <r>   -0.5750    1.0000 </r>
       <r>   -0.5650    1.0000 </r>
       <r>   -0.5607    1.0000 </r>
       <r>   -0.5511    1.0000 </r>
       <r>    5.7916    0.0000 </r>
       <r>    5.7976    0.0000 </r>
       <r>    6.0722    0.0000 </r>
       <r>    6.0791    0.0000 </r>
       <r>    6.5795    0.0000 </r>
       <r>    6.5800    0.0000 </r>
       <r>    6.9405    0.0000 </r>
       <r>    6.9439    0.0000 </r>
      </set>
      <set comment="kpoint 16">
       <r>  -19.7894    1.0000 </r>
       <r>  -19.7168    1.0000 </r>
       <r>  -19.7157    1.0000 </r>
       <r>  -19.6473    1.0000 </r>
       <r>  -12.5589    1.0000 </r>
       <r>  -12.5439    1.0000 </r>
       <r>  -12.5415    1.0000 </r>
       <r>  -12.4603    1.0000 </r>
       <r>   -7.0130    1.0000 </r>
       <r>   -7.0128    1.0000 </r>
       <r>   -6.6705    1.0000 </r>
       <r>   -6.6654    1.0000 </r>
       <r>   -6.5172    1.0000 </r>
       <r>   -6.5143    1.0000 </r>
       <r>   -6.3498    1.0000 </r>
       <r>   -6.2812    1.0000 </r>
       <r>   -6.2812    1.0000 </r>
       <r>   -6.2540    1.0000 </r>
       <r>   -6.2527    1.0000 </r>
       <r>   -6.1531    1.0000 </r>
       <r>   -1.0214    1.0000 </r>
       <r>   -1.0203    1.0000 </r>
       <r>   -0.8800    1.0000 </r>
       <r>   -0.8797    1.0000 </r>
       <r>   -0.6840    1.0000 </r>
       <r>   -0.6833    1.0000 </r>
       <r>   -0.5881    1.0000 </r>
       <r>   -0.5853    1.0000 </r>
       <r>   -0.5591    1.0000 </r>
       <r>   -0.5296    1.0000 </r>
       <r>   -0.4154    1.0000 </r>
       <r>   -0.4153    1.0000 </r>
       <r>    5.0350    0.0000 </r>
       <r>    5.0796    0.0000 </r>
       <r>    5.2501    0.0000 </r>
       <r>    5.8250    0.0000 </r>
       <r>    5.8431    0.0000 </r>
       <r>    6.1120    0.0000 </r>
       <r>    6.1137    0.0000 </r>
       <r>    6.6331    0.0000 </r>
      </set>
      <set comment="kpoint 17">
       <r>  -19.7838    1.0000 </r>
       <r>  -19.7435    1.0000 </r>
       <r>  -19.6896    1.0000 </r>
       <r>  -19.6523    1.0000 </r>
       <r>  -12.5617    1.0000 </r>
       <r>  -12.5524    1.0000 </r>
       <r>  -12.5213    1.0000 </r>
       <r>  -12.4695    1.0000 </r>
       <r>   -6.9880    1.0000 </r>
       <r>   -6.9668    1.0000 </r>
       <r>   -6.8043    1.0000 </r>
       <r>   -6.6759    1.0000 </r>
       <r>   -6.5256    1.0000 </r>
       <r>   -6.4052    1.0000 </r>
       <r>   -6.3543    1.0000 </r>
       <r>   -6.3124    1.0000 </r>
       <r>   -6.2787    1.0000 </r>
       <r>   -6.2769    1.0000 </r>
       <r>   -6.2170    1.0000 </r>
       <r>   -6.1608    1.0000 </r>
       <r>   -1.0482    1.0000 </r>
       <r>   -0.9236    1.0000 </r>
       <r>   -0.9098    1.0000 </r>
       <r>   -0.8666    1.0000 </r>
       <r>   -0.7643    1.0000 </r>
       <r>   -0.5937    1.0000 </r>
       <r>   -0.5932    1.0000 </r>
       <r>   -0.5792    1.0000 </r>
       <r>   -0.5604    1.0000 </r>
       <r>   -0.5506    1.0000 </r>
       <r>   -0.4422    1.0000 </r>
       <r>   -0.4400    1.0000 </r>
       <r>    5.2002    0.0000 </r>
       <r>    5.2284    0.0000 </r>
       <r>    5.3320    0.0000 </r>
       <r>    5.8684    0.0000 </r>
       <r>    5.8802    0.0000 </r>
       <r>    5.9452    0.0000 </r>
       <r>    6.1430    0.0000 </r>
       <r>    6.2118    0.0000 </r>
      </set>
      <set comment="kpoint 18">
       <r>  -19.7838    1.0000 </r>
       <r>  -19.7435    1.0000 </r>
       <r>  -19.6896    1.0000 </r>
       <r>  -19.6523    1.0000 </r>
       <r>  -12.5617    1.0000 </r>
       <r>  -12.5524    1.0000 </r>
       <r>  -12.5213    1.0000 </r>
       <r>  -12.4695    1.0000 </r>
       <r>   -6.9880    1.0000 </r>
       <r>   -6.9668    1.0000 </r>
       <r>   -6.8043    1.0000 </r>
       <r>   -6.6759    1.0000 </r>
       <r>   -6.5256    1.0000 </r>
       <r>   -6.4052    1.0000 </r>
       <r>   -6.3543    1.0000 </r>
       <r>   -6.3124    1.0000 </r>
       <r>   -6.2785    1.0000 </r>
       <r>   -6.2771    1.0000 </r>
       <r>   -6.2170    1.0000 </r>
       <r>   -6.1608    1.0000 </r>
       <r>   -1.0482    1.0000 </r>
       <r>   -0.9236    1.0000 </r>
       <r>   -0.9099    1.0000 </r>
       <r>   -0.8666    1.0000 </r>
       <r>   -0.7643    1.0000 </r>
       <r>   -0.5937    1.0000 </r>
       <r>   -0.5932    1.0000 </r>
       <r>   -0.5793    1.0000 </r>
       <r>   -0.5603    1.0000 </r>
       <r>   -0.5507    1.0000 </r>
       <r>   -0.4422    1.0000 </r>
       <r>   -0.4400    1.0000 </r>
       <r>    5.2002    0.0000 </r>
       <r>    5.2284    0.0000 </r>
       <r>    5.3320    0.0000 </r>
       <r>    5.8685    0.0000 </r>
       <r>    5.8802    0.0000 </r>
       <r>    5.9452    0.0000 </r>
       <r>    6.1429    0.0000 </r>
       <r>    6.2118    0.0000 </r>
      </set>
      <set comment="kpoint 19">
       <r>  -19.7711    1.0000 </r>
       <r>  -19.7638    1.0000 </r>
       <r>  -19.6700    1.0000 </r>
       <r>  -19.6643    1.0000 </r>
       <r>  -12.5638    1.0000 </r>
       <r>  -12.5547    1.0000 </r>
       <r>  -12.4981    1.0000 </r>
       <r>  -12.4886    1.0000 </r>
       <r>   -6.9210    1.0000 </r>
       <r>   -6.9102    1.0000 </r>
       <r>   -6.8465    1.0000 </r>
       <r>   -6.8378    1.0000 </r>
       <r>   -6.4013    1.0000 </r>
       <r>   -6.3978    1.0000 </r>
       <r>   -6.3648    1.0000 </r>
       <r>   -6.3632    1.0000 </r>
       <r>   -6.2790    1.0000 </r>
       <r>   -6.2780    1.0000 </r>
       <r>   -6.1861    1.0000 </r>
       <r>   -6.1807    1.0000 </r>
       <r>   -1.0051    1.0000 </r>
       <r>   -0.9990    1.0000 </r>
       <r>   -0.8312    1.0000 </r>
       <r>   -0.8229    1.0000 </r>
       <r>   -0.7478    1.0000 </r>
       <r>   -0.7431    1.0000 </r>
       <r>   -0.5650    1.0000 </r>
       <r>   -0.5557    1.0000 </r>
       <r>   -0.5105    1.0000 </r>
       <r>   -0.5032    1.0000 </r>
       <r>   -0.5011    1.0000 </r>
       <r>   -0.4977    1.0000 </r>
       <r>    5.5551    0.0000 </r>
       <r>    5.5652    0.0000 </r>
       <r>    5.6393    0.0000 </r>
       <r>    5.6440    0.0000 </r>
       <r>    5.6528    0.0000 </r>
       <r>    5.6635    0.0000 </r>
       <r>    6.0095    0.0000 </r>
       <r>    6.0179    0.0000 </r>
      </set>
      <set comment="kpoint 20">
       <r>  -19.7821    1.0000 </r>
       <r>  -19.7162    1.0000 </r>
       <r>  -19.7152    1.0000 </r>
       <r>  -19.6539    1.0000 </r>
       <r>  -12.5617    1.0000 </r>
       <r>  -12.5510    1.0000 </r>
       <r>  -12.5474    1.0000 </r>
       <r>  -12.4723    1.0000 </r>
       <r>   -6.9803    1.0000 </r>
       <r>   -6.9532    1.0000 </r>
       <r>   -6.7314    1.0000 </r>
       <r>   -6.7291    1.0000 </r>
       <r>   -6.4172    1.0000 </r>
       <r>   -6.4169    1.0000 </r>
       <r>   -6.3553    1.0000 </r>
       <r>   -6.3217    1.0000 </r>
       <r>   -6.2770    1.0000 </r>
       <r>   -6.2538    1.0000 </r>
       <r>   -6.2526    1.0000 </r>
       <r>   -6.1632    1.0000 </r>
       <r>   -1.1166    1.0000 </r>
       <r>   -1.1162    1.0000 </r>
       <r>   -0.9338    1.0000 </r>
       <r>   -0.8622    1.0000 </r>
       <r>   -0.6948    1.0000 </r>
       <r>   -0.6944    1.0000 </r>
       <r>   -0.6096    1.0000 </r>
       <r>   -0.5618    1.0000 </r>
       <r>   -0.5557    1.0000 </r>
       <r>   -0.5488    1.0000 </r>
       <r>   -0.4492    1.0000 </r>
       <r>   -0.4474    1.0000 </r>
       <r>    5.2488    0.0000 </r>
       <r>    5.2733    0.0000 </r>
       <r>    5.3566    0.0000 </r>
       <r>    5.8954    0.0000 </r>
       <r>    5.9766    0.0000 </r>
       <r>    6.1480    0.0000 </r>
       <r>    6.1503    0.0000 </r>
       <r>    6.6488    0.0000 </r>
      </set>
      <set comment="kpoint 21">
       <r>  -19.7821    1.0000 </r>
       <r>  -19.7162    1.0000 </r>
       <r>  -19.7152    1.0000 </r>
       <r>  -19.6539    1.0000 </r>
       <r>  -12.5617    1.0000 </r>
       <r>  -12.5510    1.0000 </r>
       <r>  -12.5474    1.0000 </r>
       <r>  -12.4723    1.0000 </r>
       <r>   -6.9803    1.0000 </r>
       <r>   -6.9532    1.0000 </r>
       <r>   -6.7314    1.0000 </r>
       <r>   -6.7291    1.0000 </r>
       <r>   -6.4172    1.0000 </r>
       <r>   -6.4169    1.0000 </r>
       <r>   -6.3553    1.0000 </r>
       <r>   -6.3217    1.0000 </r>
       <r>   -6.2770    1.0000 </r>
       <r>   -6.2538    1.0000 </r>
       <r>   -6.2526    1.0000 </r>
       <r>   -6.1632    1.0000 </r>
       <r>   -1.1166    1.0000 </r>
       <r>   -1.1162    1.0000 </r>
       <r>   -0.9338    1.0000 </r>
       <r>   -0.8622    1.0000 </r>
       <r>   -0.6948    1.0000 </r>
       <r>   -0.6944    1.0000 </r>
       <r>   -0.6096    1.0000 </r>
       <r>   -0.5618    1.0000 </r>
       <r>   -0.5557    1.0000 </r>
       <r>   -0.5488    1.0000 </r>
       <r>   -0.4492    1.0000 </r>
       <r>   -0.4474    1.0000 </r>
       <r>    5.2488    0.0000 </r>
       <r>    5.2733    0.0000 </r>
       <r>    5.3566    0.0000 </r>
       <r>    5.8954    0.0000 </r>
       <r>    5.9766    0.0000 </r>
       <r>    6.1480    0.0000 </r>
       <r>    6.1503    0.0000 </r>
       <r>    6.6485    0.0000 </r>
      </set>
      <set comment="kpoint 22">
       <r>  -19.7770    1.0000 </r>
       <r>  -19.7402    1.0000 </r>
       <r>  -19.6917    1.0000 </r>
       <r>  -19.6583    1.0000 </r>
       <r>  -12.5654    1.0000 </r>
       <r>  -12.5561    1.0000 </r>
       <r>  -12.5302    1.0000 </r>
       <r>  -12.4810    1.0000 </r>
       <r>   -6.9797    1.0000 </r>
       <r>   -6.8871    1.0000 </r>
       <r>   -6.8433    1.0000 </r>
       <r>   -6.6088    1.0000 </r>
       <r>   -6.5765    1.0000 </r>
       <r>   -6.4059    1.0000 </r>
       <r>   -6.3152    1.0000 </r>
       <r>   -6.3104    1.0000 </r>
       <r>   -6.2751    1.0000 </r>
       <r>   -6.2606    1.0000 </r>
       <r>   -6.2200    1.0000 </r>
       <r>   -6.1700    1.0000 </r>
       <r>   -1.1177    1.0000 </r>
       <r>   -1.0275    1.0000 </r>
       <r>   -0.9614    1.0000 </r>
       <r>   -0.8720    1.0000 </r>
       <r>   -0.7803    1.0000 </r>
       <r>   -0.6961    1.0000 </r>
       <r>   -0.5960    1.0000 </r>
       <r>   -0.5545    1.0000 </r>
       <r>   -0.5435    1.0000 </r>
       <r>   -0.5336    1.0000 </r>
       <r>   -0.4702    1.0000 </r>
       <r>   -0.4452    1.0000 </r>
       <r>    5.2808    0.0000 </r>
       <r>    5.4126    0.0000 </r>
       <r>    5.5589    0.0000 </r>
       <r>    5.8241    0.0000 </r>
       <r>    5.9694    0.0000 </r>
       <r>    6.0612    0.0000 </r>
       <r>    6.2272    0.0000 </r>
       <r>    6.2310    0.0000 </r>
      </set>
      <set comment="kpoint 23">
       <r>  -19.7770    1.0000 </r>
       <r>  -19.7402    1.0000 </r>
       <r>  -19.6917    1.0000 </r>
       <r>  -19.6583    1.0000 </r>
       <r>  -12.5654    1.0000 </r>
       <r>  -12.5561    1.0000 </r>
       <r>  -12.5302    1.0000 </r>
       <r>  -12.4810    1.0000 </r>
       <r>   -6.9797    1.0000 </r>
       <r>   -6.8871    1.0000 </r>
       <r>   -6.8433    1.0000 </r>
       <r>   -6.6088    1.0000 </r>
       <r>   -6.5765    1.0000 </r>
       <r>   -6.4059    1.0000 </r>
       <r>   -6.3150    1.0000 </r>
       <r>   -6.3107    1.0000 </r>
       <r>   -6.2751    1.0000 </r>
       <r>   -6.2606    1.0000 </r>
       <r>   -6.2200    1.0000 </r>
       <r>   -6.1700    1.0000 </r>
       <r>   -1.1177    1.0000 </r>
       <r>   -1.0275    1.0000 </r>
       <r>   -0.9614    1.0000 </r>
       <r>   -0.8720    1.0000 </r>
       <r>   -0.7803    1.0000 </r>
       <r>   -0.6961    1.0000 </r>
       <r>   -0.5960    1.0000 </r>
       <r>   -0.5544    1.0000 </r>
       <r>   -0.5437    1.0000 </r>
       <r>   -0.5335    1.0000 </r>
       <r>   -0.4702    1.0000 </r>
       <r>   -0.4452    1.0000 </r>
       <r>    5.2808    0.0000 </r>
       <r>    5.4126    0.0000 </r>
       <r>    5.5589    0.0000 </r>
       <r>    5.8241    0.0000 </r>
       <r>    5.9694    0.0000 </r>
       <r>    6.0612    0.0000 </r>
       <r>    6.2272    0.0000 </r>
       <r>    6.2310    0.0000 </r>
      </set>
      <set comment="kpoint 24">
       <r>  -19.7770    1.0000 </r>
       <r>  -19.7402    1.0000 </r>
       <r>  -19.6917    1.0000 </r>
       <r>  -19.6583    1.0000 </r>
       <r>  -12.5654    1.0000 </r>
       <r>  -12.5561    1.0000 </r>
       <r>  -12.5301    1.0000 </r>
       <r>  -12.4810    1.0000 </r>
       <r>   -6.9798    1.0000 </r>
       <r>   -6.8867    1.0000 </r>
       <r>   -6.8436    1.0000 </r>
       <r>   -6.6090    1.0000 </r>
       <r>   -6.5762    1.0000 </r>
       <r>   -6.4059    1.0000 </r>
       <r>   -6.3157    1.0000 </r>
       <r>   -6.3099    1.0000 </r>
       <r>   -6.2751    1.0000 </r>
       <r>   -6.2605    1.0000 </r>
       <r>   -6.2200    1.0000 </r>
       <r>   -6.1700    1.0000 </r>
       <r>   -1.1177    1.0000 </r>
       <r>   -1.0275    1.0000 </r>
       <r>   -0.9614    1.0000 </r>
       <r>   -0.8719    1.0000 </r>
       <r>   -0.7803    1.0000 </r>
       <r>   -0.6961    1.0000 </r>
       <r>   -0.5960    1.0000 </r>
       <r>   -0.5545    1.0000 </r>
       <r>   -0.5437    1.0000 </r>
       <r>   -0.5335    1.0000 </r>
       <r>   -0.4702    1.0000 </r>
       <r>   -0.4452    1.0000 </r>
       <r>    5.2808    0.0000 </r>
       <r>    5.4126    0.0000 </r>
       <r>    5.5589    0.0000 </r>
       <r>    5.8241    0.0000 </r>
       <r>    5.9694    0.0000 </r>
       <r>    6.0612    0.0000 </r>
       <r>    6.2272    0.0000 </r>
       <r>    6.2310    0.0000 </r>
      </set>
      <set comment="kpoint 25">
       <r>  -19.7770    1.0000 </r>
       <r>  -19.7402    1.0000 </r>
       <r>  -19.6917    1.0000 </r>
       <r>  -19.6583    1.0000 </r>
       <r>  -12.5654    1.0000 </r>
       <r>  -12.5561    1.0000 </r>
       <r>  -12.5301    1.0000 </r>
       <r>  -12.4810    1.0000 </r>
       <r>   -6.9798    1.0000 </r>
       <r>   -6.8867    1.0000 </r>
       <r>   -6.8436    1.0000 </r>
       <r>   -6.6090    1.0000 </r>
       <r>   -6.5762    1.0000 </r>
       <r>   -6.4059    1.0000 </r>
       <r>   -6.3155    1.0000 </r>
       <r>   -6.3101    1.0000 </r>
       <r>   -6.2751    1.0000 </r>
       <r>   -6.2605    1.0000 </r>
       <r>   -6.2200    1.0000 </r>
       <r>   -6.1700    1.0000 </r>
       <r>   -1.1177    1.0000 </r>
       <r>   -1.0275    1.0000 </r>
       <r>   -0.9614    1.0000 </r>
       <r>   -0.8719    1.0000 </r>
       <r>   -0.7803    1.0000 </r>
       <r>   -0.6961    1.0000 </r>
       <r>   -0.5960    1.0000 </r>
       <r>   -0.5544    1.0000 </r>
       <r>   -0.5439    1.0000 </r>
       <r>   -0.5334    1.0000 </r>
       <r>   -0.4702    1.0000 </r>
       <r>   -0.4452    1.0000 </r>
       <r>    5.2808    0.0000 </r>
       <r>    5.4126    0.0000 </r>
       <r>    5.5589    0.0000 </r>
       <r>    5.8241    0.0000 </r>
       <r>    5.9694    0.0000 </r>
       <r>    6.0612    0.0000 </r>
       <r>    6.2272    0.0000 </r>
       <r>    6.2310    0.0000 </r>
      </set>
      <set comment="kpoint 26">
       <r>  -19.7657    1.0000 </r>
       <r>  -19.7584    1.0000 </r>
       <r>  -19.6745    1.0000 </r>
       <r>  -19.6687    1.0000 </r>
       <r>  -12.5672    1.0000 </r>
       <r>  -12.5581    1.0000 </r>
       <r>  -12.5085    1.0000 </r>
       <r>  -12.4990    1.0000 </r>
       <r>   -6.9341    1.0000 </r>
       <r>   -6.9310    1.0000 </r>
       <r>   -6.7482    1.0000 </r>
       <r>   -6.7470    1.0000 </r>
       <r>   -6.4968    1.0000 </r>
       <r>   -6.4960    1.0000 </r>
       <r>   -6.3103    1.0000 </r>
       <r>   -6.3036    1.0000 </r>
       <r>   -6.2538    1.0000 </r>
       <r>   -6.2524    1.0000 </r>
       <r>   -6.1927    1.0000 </r>
       <r>   -6.1872    1.0000 </r>
       <r>   -1.0505    1.0000 </r>
       <r>   -1.0474    1.0000 </r>
       <r>   -0.8682    1.0000 </r>
       <r>   -0.8678    1.0000 </r>
       <r>   -0.8457    1.0000 </r>
       <r>   -0.8399    1.0000 </r>
       <r>   -0.5454    1.0000 </r>
       <r>   -0.5367    1.0000 </r>
       <r>   -0.5162    1.0000 </r>
       <r>   -0.5105    1.0000 </r>
       <r>   -0.4911    1.0000 </r>
       <r>   -0.4860    1.0000 </r>
       <r>    5.4804    0.0000 </r>
       <r>    5.4828    0.0000 </r>
       <r>    5.7680    0.0000 </r>
       <r>    5.7716    0.0000 </r>
       <r>    6.0395    0.0000 </r>
       <r>    6.0415    0.0000 </r>
       <r>    6.1106    0.0000 </r>
       <r>    6.1181    0.0000 </r>
      </set>
      <set comment="kpoint 27">
       <r>  -19.7657    1.0000 </r>
       <r>  -19.7584    1.0000 </r>
       <r>  -19.6745    1.0000 </r>
       <r>  -19.6687    1.0000 </r>
       <r>  -12.5672    1.0000 </r>
       <r>  -12.5581    1.0000 </r>
       <r>  -12.5085    1.0000 </r>
       <r>  -12.4990    1.0000 </r>
       <r>   -6.9341    1.0000 </r>
       <r>   -6.9310    1.0000 </r>
       <r>   -6.7482    1.0000 </r>
       <r>   -6.7470    1.0000 </r>
       <r>   -6.4968    1.0000 </r>
       <r>   -6.4960    1.0000 </r>
       <r>   -6.3103    1.0000 </r>
       <r>   -6.3036    1.0000 </r>
       <r>   -6.2538    1.0000 </r>
       <r>   -6.2524    1.0000 </r>
       <r>   -6.1927    1.0000 </r>
       <r>   -6.1872    1.0000 </r>
       <r>   -1.0505    1.0000 </r>
       <r>   -1.0474    1.0000 </r>
       <r>   -0.8682    1.0000 </r>
       <r>   -0.8678    1.0000 </r>
       <r>   -0.8457    1.0000 </r>
       <r>   -0.8399    1.0000 </r>
       <r>   -0.5454    1.0000 </r>
       <r>   -0.5367    1.0000 </r>
       <r>   -0.5162    1.0000 </r>
       <r>   -0.5105    1.0000 </r>
       <r>   -0.4911    1.0000 </r>
       <r>   -0.4860    1.0000 </r>
       <r>    5.4804    0.0000 </r>
       <r>    5.4828    0.0000 </r>
       <r>    5.7680    0.0000 </r>
       <r>    5.7716    0.0000 </r>
       <r>    6.0395    0.0000 </r>
       <r>    6.0415    0.0000 </r>
       <r>    6.1106    0.0000 </r>
       <r>    6.1181    0.0000 </r>
      </set>
      <set comment="kpoint 28">
       <r>  -19.7617    1.0000 </r>
[...]
       <r>   -0.8811    1.0000 </r>
       <r>   -0.8807    1.0000 </r>
       <r>   -0.8776    1.0000 </r>
       <r>   -0.8117    1.0000 </r>
       <r>   -0.7539    1.0000 </r>
       <r>   -0.5677    1.0000 </r>
       <r>   -0.5546    1.0000 </r>
       <r>   -0.4670    1.0000 </r>
       <r>    5.6518    0.0000 </r>
       <r>    5.7782    0.0000 </r>
       <r>    5.8212    0.0000 </r>
       <r>    5.8442    0.0000 </r>
       <r>    6.4985    0.0000 </r>
       <r>    6.5349    0.0000 </r>
       <r>    6.6112    0.0000 </r>
       <r>    6.9398    0.0000 </r>
      </set>
      <set comment="kpoint 141">
       <r>  -19.6695    1.0000 </r>
       <r>  -19.6586    1.0000 </r>
       <r>  -19.6490    1.0000 </r>
       <r>  -19.6397    1.0000 </r>
       <r>  -12.5027    1.0000 </r>
       <r>  -12.4795    1.0000 </r>
       <r>  -12.4648    1.0000 </r>
       <r>  -12.4549    1.0000 </r>
       <r>   -7.0124    1.0000 </r>
       <r>   -7.0101    1.0000 </r>
       <r>   -7.0083    1.0000 </r>
       <r>   -6.9616    1.0000 </r>
       <r>   -6.9312    1.0000 </r>
       <r>   -6.9281    1.0000 </r>
       <r>   -6.7915    1.0000 </r>
       <r>   -6.6695    1.0000 </r>
       <r>   -6.4301    1.0000 </r>
       <r>   -6.2924    1.0000 </r>
       <r>   -6.1513    1.0000 </r>
       <r>   -6.0898    1.0000 </r>
       <r>   -1.0996    1.0000 </r>
       <r>   -1.0936    1.0000 </r>
       <r>   -1.0912    1.0000 </r>
       <r>   -0.9303    1.0000 </r>
       <r>   -0.8811    1.0000 </r>
       <r>   -0.8807    1.0000 </r>
       <r>   -0.8775    1.0000 </r>
       <r>   -0.8117    1.0000 </r>
       <r>   -0.7539    1.0000 </r>
       <r>   -0.5675    1.0000 </r>
       <r>   -0.5548    1.0000 </r>
       <r>   -0.4670    1.0000 </r>
       <r>    5.6518    0.0000 </r>
       <r>    5.7782    0.0000 </r>
       <r>    5.8212    0.0000 </r>
       <r>    5.8442    0.0000 </r>
       <r>    6.4985    0.0000 </r>
       <r>    6.5349    0.0000 </r>
       <r>    6.6112    0.0000 </r>
       <r>    6.9397    0.0000 </r>
      </set>
      <set comment="kpoint 142">
       <r>  -19.6681    1.0000 </r>
       <r>  -19.6614    1.0000 </r>
       <r>  -19.6468    1.0000 </r>
       <r>  -19.6404    1.0000 </r>
       <r>  -12.4970    1.0000 </r>
       <r>  -12.4875    1.0000 </r>
       <r>  -12.4634    1.0000 </r>
       <r>  -12.4541    1.0000 </r>
       <r>   -6.9775    1.0000 </r>
       <r>   -6.9721    1.0000 </r>
       <r>   -6.9697    1.0000 </r>
       <r>   -6.9643    1.0000 </r>
       <r>   -6.9284    1.0000 </r>
       <r>   -6.9263    1.0000 </r>
       <r>   -6.8382    1.0000 </r>
       <r>   -6.8365    1.0000 </r>
       <r>   -6.2715    1.0000 </r>
       <r>   -6.2713    1.0000 </r>
       <r>   -6.1611    1.0000 </r>
       <r>   -6.1610    1.0000 </r>
       <r>   -0.9979    1.0000 </r>
       <r>   -0.9896    1.0000 </r>
       <r>   -0.9892    1.0000 </r>
       <r>   -0.9809    1.0000 </r>
       <r>   -0.9790    1.0000 </r>
       <r>   -0.9750    1.0000 </r>
       <r>   -0.8529    1.0000 </r>
       <r>   -0.8488    1.0000 </r>
       <r>   -0.6845    1.0000 </r>
       <r>   -0.6801    1.0000 </r>
       <r>   -0.5304    1.0000 </r>
       <r>   -0.5264    1.0000 </r>
       <r>    5.9749    0.0000 </r>
       <r>    5.9783    0.0000 </r>
       <r>    6.1249    0.0000 </r>
       <r>    6.1251    0.0000 </r>
       <r>    6.2244    0.0000 </r>
       <r>    6.2273    0.0000 </r>
       <r>    6.3060    0.0000 </r>
       <r>    6.3092    0.0000 </r>
      </set>
     </set>
    </set>
   </array>
  </eigenvalues>
  <separator name="orbital magnetization" >
   <v name="MAGDIPOLOUT">      0.00000000      0.00000000      0.00000000</v>
  </separator>
  <dos>
   <i name="efermi">     -0.28388133 </i>
   <total>
    <array>
     <dimension dim="1">gridpoints</dimension>
     <dimension dim="2">spin</dimension>
     <field>energy</field>
     <field>total</field>
     <field>integrated</field>
     <set>
      <set comment="spin 1">
       <r>   -21.1781     0.0000     0.0000 </r>
       <r>   -21.0768     0.0000     0.0000 </r>
       <r>   -20.9755     0.0000     0.0000 </r>
       <r>   -20.8741     0.0000     0.0000 </r>
       <r>   -20.7728     0.0000     0.0000 </r>
       <r>   -20.6715     0.0000     0.0000 </r>
       <r>   -20.5702     0.0000     0.0000 </r>
       <r>   -20.4689     0.0000     0.0000 </r>
       <r>   -20.3676     0.0000     0.0000 </r>
       <r>   -20.2663     0.0000     0.0000 </r>
       <r>   -20.1650     0.0000     0.0000 </r>
       <r>   -20.0637     0.0000     0.0000 </r>
       <r>   -19.9624     0.0000     0.0000 </r>
       <r>   -19.8611     0.0000     0.0000 </r>
       <r>   -19.7598     4.5596     0.4619 </r>
       <r>   -19.6585    48.6261     5.9762 </r>
       <r>   -19.5572     8.5302     8.0000 </r>
       <r>   -19.4559     0.0000     8.0000 </r>
       <r>   -19.3546     0.0000     8.0000 </r>
       <r>   -19.2533     0.0000     8.0000 </r>
       <r>   -19.1520     0.0000     8.0000 </r>
       <r>   -19.0507     0.0000     8.0000 </r>
       <r>   -18.9493     0.0000     8.0000 </r>
       <r>   -18.8480     0.0000     8.0000 </r>
       <r>   -18.7467     0.0000     8.0000 </r>
       <r>   -18.6454     0.0000     8.0000 </r>
       <r>   -18.5441     0.0000     8.0000 </r>
       <r>   -18.4428     0.0000     8.0000 </r>
       <r>   -18.3415     0.0000     8.0000 </r>
       <r>   -18.2402     0.0000     8.0000 </r>
       <r>   -18.1389     0.0000     8.0000 </r>
       <r>   -18.0376     0.0000     8.0000 </r>
       <r>   -17.9363     0.0000     8.0000 </r>
       <r>   -17.8350     0.0000     8.0000 </r>
       <r>   -17.7337     0.0000     8.0000 </r>
       <r>   -17.6324     0.0000     8.0000 </r>
       <r>   -17.5311     0.0000     8.0000 </r>
       <r>   -17.4298     0.0000     8.0000 </r>
       <r>   -17.3285     0.0000     8.0000 </r>
       <r>   -17.2272     0.0000     8.0000 </r>
       <r>   -17.1259     0.0000     8.0000 </r>
       <r>   -17.0246     0.0000     8.0000 </r>
       <r>   -16.9232     0.0000     8.0000 </r>
       <r>   -16.8219     0.0000     8.0000 </r>
       <r>   -16.7206     0.0000     8.0000 </r>
       <r>   -16.6193     0.0000     8.0000 </r>
       <r>   -16.5180     0.0000     8.0000 </r>
       <r>   -16.4167     0.0000     8.0000 </r>
       <r>   -16.3154     0.0000     8.0000 </r>
       <r>   -16.2141     0.0000     8.0000 </r>
       <r>   -16.1128     0.0000     8.0000 </r>
       <r>   -16.0115     0.0000     8.0000 </r>
       <r>   -15.9102     0.0000     8.0000 </r>
       <r>   -15.8089     0.0000     8.0000 </r>
       <r>   -15.7076     0.0000     8.0000 </r>
       <r>   -15.6063     0.0000     8.0000 </r>
       <r>   -15.5050     0.0000     8.0000 </r>
       <r>   -15.4037     0.0000     8.0000 </r>
       <r>   -15.3024     0.0000     8.0000 </r>
       <r>   -15.2011     0.0000     8.0000 </r>
       <r>   -15.0998     0.0000     8.0000 </r>
       <r>   -14.9984     0.0000     8.0000 </r>
       <r>   -14.8971     0.0000     8.0000 </r>
       <r>   -14.7958     0.0000     8.0000 </r>
       <r>   -14.6945     0.0000     8.0000 </r>
       <r>   -14.5932     0.0000     8.0000 </r>
       <r>   -14.4919     0.0000     8.0000 </r>
       <r>   -14.3906     0.0000     8.0000 </r>
       <r>   -14.2893     0.0000     8.0000 </r>
       <r>   -14.1880     0.0000     8.0000 </r>
       <r>   -14.0867     0.0000     8.0000 </r>
       <r>   -13.9854     0.0000     8.0000 </r>
       <r>   -13.8841     0.0000     8.0000 </r>
       <r>   -13.7828     0.0000     8.0000 </r>
       <r>   -13.6815     0.0000     8.0000 </r>
       <r>   -13.5802     0.0000     8.0000 </r>
       <r>   -13.4789     0.0000     8.0000 </r>
       <r>   -13.3776     0.0000     8.0000 </r>
       <r>   -13.2763     0.0000     8.0000 </r>
       <r>   -13.1750     0.0000     8.0000 </r>
       <r>   -13.0737     0.0000     8.0000 </r>
       <r>   -12.9723     0.0000     8.0000 </r>
       <r>   -12.8710     0.0000     8.0000 </r>
       <r>   -12.7697     0.0000     8.0000 </r>
       <r>   -12.6684     0.0000     8.0000 </r>
       <r>   -12.5671     9.8691     8.9998 </r>
       <r>   -12.4658    37.8156    14.6383 </r>
       <r>   -12.3645     6.5572    16.0000 </r>
       <r>   -12.2632     0.0000    16.0000 </r>
       <r>   -12.1619     0.0000    16.0000 </r>
       <r>   -12.0606     0.0000    16.0000 </r>
       <r>   -11.9593     0.0000    16.0000 </r>
       <r>   -11.8580     0.0000    16.0000 </r>
       <r>   -11.7567     0.0000    16.0000 </r>
       <r>   -11.6554     0.0000    16.0000 </r>
       <r>   -11.5541     0.0000    16.0000 </r>
       <r>   -11.4528     0.0000    16.0000 </r>
       <r>   -11.3515     0.0000    16.0000 </r>
       <r>   -11.2502     0.0000    16.0000 </r>
       <r>   -11.1489     0.0000    16.0000 </r>
       <r>   -11.0476     0.0000    16.0000 </r>
       <r>   -10.9462     0.0000    16.0000 </r>
       <r>   -10.8449     0.0000    16.0000 </r>
       <r>   -10.7436     0.0000    16.0000 </r>
       <r>   -10.6423     0.0000    16.0000 </r>
       <r>   -10.5410     0.0000    16.0000 </r>
       <r>   -10.4397     0.0000    16.0000 </r>
       <r>   -10.3384     0.0000    16.0000 </r>
       <r>   -10.2371     0.0000    16.0000 </r>
       <r>   -10.1358     0.0000    16.0000 </r>
       <r>   -10.0345     0.0000    16.0000 </r>
       <r>    -9.9332     0.0000    16.0000 </r>
       <r>    -9.8319     0.0000    16.0000 </r>
       <r>    -9.7306     0.0000    16.0000 </r>
       <r>    -9.6293     0.0000    16.0000 </r>
       <r>    -9.5280     0.0000    16.0000 </r>
       <r>    -9.4267     0.0000    16.0000 </r>
       <r>    -9.3254     0.0000    16.0000 </r>
       <r>    -9.2241     0.0000    16.0000 </r>
       <r>    -9.1228     0.0000    16.0000 </r>
       <r>    -9.0214     0.0000    16.0000 </r>
       <r>    -8.9201     0.0000    16.0000 </r>
       <r>    -8.8188     0.0000    16.0000 </r>
       <r>    -8.7175     0.0000    16.0000 </r>
       <r>    -8.6162     0.0000    16.0000 </r>
       <r>    -8.5149     0.0000    16.0000 </r>
       <r>    -8.4136     0.0000    16.0000 </r>
       <r>    -8.3123     0.0000    16.0000 </r>
       <r>    -8.2110     0.0000    16.0000 </r>
       <r>    -8.1097     0.0000    16.0000 </r>
       <r>    -8.0084     0.0000    16.0000 </r>
       <r>    -7.9071     0.0000    16.0000 </r>
       <r>    -7.8058     0.0000    16.0000 </r>
       <r>    -7.7045     0.0000    16.0000 </r>
       <r>    -7.6032     0.0000    16.0000 </r>
       <r>    -7.5019     0.0000    16.0000 </r>
       <r>    -7.4006     0.0000    16.0000 </r>
       <r>    -7.2993     0.0000    16.0000 </r>
       <r>    -7.1980     0.0000    16.0000 </r>
       <r>    -7.0967     0.0000    16.0000 </r>
       <r>    -6.9953     2.8878    16.2926 </r>
       <r>    -6.8940    22.9141    18.8785 </r>
       <r>    -6.7927    29.9478    22.7197 </r>
       <r>    -6.6914    20.6774    25.4233 </r>
       <r>    -6.5901    14.8175    27.7011 </r>
       <r>    -6.4888    12.5931    29.4472 </r>
       <r>    -6.3875    17.4519    31.9680 </r>
       <r>    -6.2862    19.1235    34.2088 </r>
       <r>    -6.1849    28.9000    37.9279 </r>
       <r>    -6.0836    13.1800    39.9567 </r>
       <r>    -5.9823     0.0000    40.0000 </r>
       <r>    -5.8810     0.0000    40.0000 </r>
       <r>    -5.7797     0.0000    40.0000 </r>
       <r>    -5.6784     0.0000    40.0000 </r>
       <r>    -5.5771     0.0000    40.0000 </r>
       <r>    -5.4758     0.0000    40.0000 </r>
       <r>    -5.3745     0.0000    40.0000 </r>
       <r>    -5.2732     0.0000    40.0000 </r>
       <r>    -5.1719     0.0000    40.0000 </r>
       <r>    -5.0705     0.0000    40.0000 </r>
       <r>    -4.9692     0.0000    40.0000 </r>
       <r>    -4.8679     0.0000    40.0000 </r>
       <r>    -4.7666     0.0000    40.0000 </r>
       <r>    -4.6653     0.0000    40.0000 </r>
       <r>    -4.5640     0.0000    40.0000 </r>
       <r>    -4.4627     0.0000    40.0000 </r>
       <r>    -4.3614     0.0000    40.0000 </r>
       <r>    -4.2601     0.0000    40.0000 </r>
       <r>    -4.1588     0.0000    40.0000 </r>
       <r>    -4.0575     0.0000    40.0000 </r>
       <r>    -3.9562     0.0000    40.0000 </r>
       <r>    -3.8549     0.0000    40.0000 </r>
       <r>    -3.7536     0.0000    40.0000 </r>
       <r>    -3.6523     0.0000    40.0000 </r>
       <r>    -3.5510     0.0000    40.0000 </r>
       <r>    -3.4497     0.0000    40.0000 </r>
       <r>    -3.3484     0.0000    40.0000 </r>
       <r>    -3.2471     0.0000    40.0000 </r>
       <r>    -3.1458     0.0000    40.0000 </r>
       <r>    -3.0444     0.0000    40.0000 </r>
       <r>    -2.9431     0.0000    40.0000 </r>
       <r>    -2.8418     0.0000    40.0000 </r>
       <r>    -2.7405     0.0000    40.0000 </r>
       <r>    -2.6392     0.0000    40.0000 </r>
       <r>    -2.5379     0.0000    40.0000 </r>
       <r>    -2.4366     0.0000    40.0000 </r>
       <r>    -2.3353     0.0000    40.0000 </r>
       <r>    -2.2340     0.0000    40.0000 </r>
       <r>    -2.1327     0.0000    40.0000 </r>
       <r>    -2.0314     0.0000    40.0000 </r>
       <r>    -1.9301     0.0000    40.0000 </r>
       <r>    -1.8288     0.0000    40.0000 </r>
       <r>    -1.7275     0.0000    40.0000 </r>
       <r>    -1.6262     0.0000    40.0000 </r>
       <r>    -1.5249     0.0637    40.0065 </r>
       <r>    -1.4236     1.8440    40.2225 </r>
       <r>    -1.3223     6.1443    40.8796 </r>
       <r>    -1.2210    10.7326    42.1730 </r>
       <r>    -1.1196    15.4370    44.0067 </r>
       <r>    -1.0183    30.4078    47.7092 </r>
       <r>    -0.9170    16.3300    49.8829 </r>
       <r>    -0.8157    20.7666    52.1752 </r>
       <r>    -0.7144    20.8560    54.6415 </r>
       <r>    -0.6131    19.9810    57.1814 </r>
       <r>    -0.5118    45.8718    62.4901 </r>
       <r>    -0.4105     8.8256    63.9584 </r>
       <r>    -0.3092     0.0000    64.0000 </r>
       <r>    -0.2079     0.0000    64.0000 </r>
       <r>    -0.1066     0.0000    64.0000 </r>
       <r>    -0.0053     0.0000    64.0000 </r>
       <r>     0.0960     0.0000    64.0000 </r>
       <r>     0.1973     0.0000    64.0000 </r>
       <r>     0.2986     0.0000    64.0000 </r>
       <r>     0.3999     0.0000    64.0000 </r>
       <r>     0.5012     0.0000    64.0000 </r>
       <r>     0.6025     0.0000    64.0000 </r>
       <r>     0.7038     0.0000    64.0000 </r>
       <r>     0.8051     0.0000    64.0000 </r>
       <r>     0.9065     0.0000    64.0000 </r>
       <r>     1.0078     0.0000    64.0000 </r>
       <r>     1.1091     0.0000    64.0000 </r>
       <r>     1.2104     0.0000    64.0000 </r>
       <r>     1.3117     0.0000    64.0000 </r>
       <r>     1.4130     0.0000    64.0000 </r>
       <r>     1.5143     0.0000    64.0000 </r>
       <r>     1.6156     0.0000    64.0000 </r>
       <r>     1.7169     0.0000    64.0000 </r>
       <r>     1.8182     0.0000    64.0000 </r>
       <r>     1.9195     0.0000    64.0000 </r>
       <r>     2.0208     0.0000    64.0000 </r>
       <r>     2.1221     0.0000    64.0000 </r>
       <r>     2.2234     0.0000    64.0000 </r>
       <r>     2.3247     0.0000    64.0000 </r>
       <r>     2.4260     0.0000    64.0000 </r>
       <r>     2.5273     0.0000    64.0000 </r>
       <r>     2.6286     0.0000    64.0000 </r>
       <r>     2.7299     0.0000    64.0000 </r>
       <r>     2.8313     0.0000    64.0000 </r>
       <r>     2.9326     0.0000    64.0000 </r>
       <r>     3.0339     0.0000    64.0000 </r>
       <r>     3.1352     0.0000    64.0000 </r>
       <r>     3.2365     0.0000    64.0000 </r>
       <r>     3.3378     0.0000    64.0000 </r>
       <r>     3.4391     0.0000    64.0000 </r>
       <r>     3.5404     0.0000    64.0000 </r>
       <r>     3.6417     0.0000    64.0000 </r>
       <r>     3.7430     0.0000    64.0000 </r>
       <r>     3.8443     0.0000    64.0000 </r>
       <r>     3.9456     0.0000    64.0000 </r>
       <r>     4.0469     0.0000    64.0000 </r>
       <r>     4.1482     0.0000    64.0000 </r>
       <r>     4.2495     0.0000    64.0000 </r>
       <r>     4.3508     0.0000    64.0000 </r>
       <r>     4.4521     0.0000    64.0000 </r>
       <r>     4.5534     0.0000    64.0000 </r>
       <r>     4.6547     0.0000    64.0000 </r>
       <r>     4.7560     0.0000    64.0000 </r>
       <r>     4.8574     0.0705    64.0071 </r>
       <r>     4.9587     0.0000    64.0071 </r>
       <r>     5.0600     0.5643    64.0643 </r>
       <r>     5.1613     0.6095    64.1403 </r>
       <r>     5.2626     1.4328    64.2952 </r>
       <r>     5.3639     0.9444    64.4885 </r>
       <r>     5.4652     1.9609    64.6915 </r>
       <r>     5.5665     1.5300    64.9336 </r>
       <r>     5.6678     3.6771    65.3725 </r>
       <r>     5.7691     3.5348    65.8510 </r>
       <r>     5.8704     6.9441    66.7106 </r>
       <r>     5.9717     7.6855    67.7429 </r>
       <r>     6.0730     8.1403    68.8747 </r>
       <r>     6.1743    11.2237    70.1513 </r>
       <r>     6.2756     7.3698    70.9466 </r>
       <r>     6.3769     7.8080    71.9339 </r>
       <r>     6.4782     7.4919    72.7590 </r>
       <r>     6.5795     6.7449    73.7333 </r>
       <r>     6.6808    10.6703    74.9882 </r>
       <r>     6.7822     5.3579    75.7357 </r>
       <r>     6.8835    10.8373    77.0050 </r>
       <r>     6.9848     7.2883    77.9741 </r>
       <r>     7.0861     4.0461    78.4885 </r>
       <r>     7.1874     3.7631    78.9598 </r>
       <r>     7.2887     1.9590    79.2270 </r>
       <r>     7.3900     1.6254    79.4504 </r>
       <r>     7.4913     1.2337    79.5964 </r>
       <r>     7.5926     2.6282    79.8805 </r>
       <r>     7.6939     0.2821    79.9286 </r>
       <r>     7.7952     0.4495    79.9741 </r>
       <r>     7.8965     0.1410    80.0000 </r>
       <r>     7.9978     0.0000    80.0000 </r>
       <r>     8.0991     0.0000    80.0000 </r>
       <r>     8.2004     0.0000    80.0000 </r>
       <r>     8.3017     0.0000    80.0000 </r>
       <r>     8.4030     0.0000    80.0000 </r>
       <r>     8.5043     0.0000    80.0000 </r>
       <r>     8.6056     0.0000    80.0000 </r>
       <r>     8.7069     0.0000    80.0000 </r>
       <r>     8.8083     0.0000    80.0000 </r>
       <r>     8.9096     0.0000    80.0000 </r>
       <r>     9.0109     0.0000    80.0000 </r>
       <r>     9.1122     0.0000    80.0000 </r>
       <r>     9.2135     0.0000    80.0000 </r>
      </set>
     </set>
    </array>
   </total>
  </dos>
 </calculation>
 <structure name="finalpos" >
  <crystal>
   <varray name="basis" >
    <v>       8.28739668       8.28739668       0.00000000 </v>
    <v>      -4.14369834       4.14369834      -0.00000000 </v>
    <v>       0.00000000       0.00000000       4.14369834 </v>
   </varray>
   <i name="volume">    284.59311253 </i>
   <varray name="rec_basis" >
    <v>       0.06033258       0.06033258      -0.00000000 </v>
    <v>      -0.12066515       0.12066515       0.00000000 </v>
    <v>      -0.00000000      -0.00000000       0.24133031 </v>
   </varray>
  </crystal>
  <varray name="positions" >
   <v>       0.00072764       0.00072764       0.00072764 </v>
   <v>       0.25000000       0.50000000       0.00000000 </v>
   <v>       0.50000000       0.00000000       0.00000000 </v>
   <v>       0.75000000       0.50000000       0.00000000 </v>
   <v>       0.25000000       0.00000000       0.50000000 </v>
   <v>       0.50000000       0.50000000       0.50000000 </v>
   <v>       0.75000000       0.00000000       0.50000000 </v>
   <v>       0.00000000       0.50000000       0.50000000 </v>
  </varray>
 </structure>
</modeling>
