<?xml version="1.0" encoding="ISO-8859-1"?>
<modeling>
 <generator>
  <i name="program" type="string">vasp </i>
  <i name="version" type="string">6.4.3  </i>
  <i name="subversion" type="string">19Mar24 (build Jun 20 2024 15:56:09) complex                          parallel </i>
  <i name="platform" type="string">LinuxNV_CrayMPICH </i>
  <i name="date" type="string">2025 02 12 </i>
  <i name="time" type="string">10:47:58 </i>
 </generator>
 <incar>
  <i type="string" name="PREC">Accurate</i>
  <i type="int" name="IBRION">    -1</i>
  <i name="EDIFF">      0.00000010</i>
  <i type="int" name="NSW">     0</i>
  <i name="ENCUT">    900.00000000</i>
  <i type="logical" name="LREAL"> F  </i>
  <i type="int" name="ISMEAR">     0</i>
  <i name="SIGMA">      0.01000000</i>
  <i type="logical" name="LWAVE"> F  </i>
  <i type="logical" name="LCHARG"> F  </i>
  <i type="int" name="IVDW">    12</i>
 </incar>
 <primitive_cell>
  <structure name="primitive_cell" >
   <crystal>
    <varray name="basis" >
     <v>       1.95429405       3.38493658       0.00000000 </v>
     <v>      -2.93144107       1.69246829       0.00000000 </v>
     <v>       0.00000000       0.00000000       9.56312345 </v>
    </varray>
    <i name="volume">    126.52321019 </i>
    <varray name="rec_basis" >
     <v>       0.12792343       0.22156988      -0.00000000 </v>
     <v>      -0.25584686       0.14771325       0.00000000 </v>
     <v>       0.00000000      -0.00000000       0.10456835 </v>
    </varray>
   </crystal>
   <varray name="positions" >
    <v>       0.25091984       0.16758651       0.08425317 </v>
    <v>       0.50000000       0.66666667       0.08333333 </v>
    <v>       0.75000000       0.16666667       0.08333333 </v>
    <v>       0.00000000       0.66666667       0.08333333 </v>
    <v>       0.25000000       0.16666667       0.41666667 </v>
    <v>       0.50000000       0.66666667       0.41666667 </v>
    <v>       0.75000000       0.16666667       0.41666667 </v>
    <v>       0.00000000       0.66666667       0.41666667 </v>
    <v>       0.25000000       0.16666667       0.75000000 </v>
    <v>       0.50000000       0.66666667       0.75000000 </v>
    <v>       0.75000000       0.16666667       0.75000000 </v>
    <v>       0.00000000       0.66666667       0.75000000 </v>
    <v>       0.25000000       0.83333333       0.25000000 </v>
    <v>       0.50000000       0.33333333       0.25000000 </v>
    <v>       0.75000000       0.83333333       0.25000000 </v>
    <v>       0.00000000       0.33333333       0.25000000 </v>
    <v>       0.25000000       0.83333333       0.58333333 </v>
    <v>       0.50000000       0.33333333       0.58333333 </v>
    <v>       0.75000000       0.83333333       0.58333333 </v>
    <v>       0.00000000       0.33333333       0.58333333 </v>
    <v>       0.25000000       0.83333333       0.91666667 </v>
    <v>       0.50000000       0.33333333       0.91666667 </v>
    <v>       0.75000000       0.83333333       0.91666667 </v>
    <v>       0.00000000       0.33333333       0.91666667 </v>
   </varray>
  </structure>
  <varray name="primitive_index" >
   <v type="int" >        1 </v>
   <v type="int" >        2 </v>
   <v type="int" >        3 </v>
   <v type="int" >        4 </v>
   <v type="int" >        5 </v>
   <v type="int" >        6 </v>
   <v type="int" >        7 </v>
   <v type="int" >        8 </v>
   <v type="int" >        9 </v>
   <v type="int" >       10 </v>
   <v type="int" >       11 </v>
   <v type="int" >       12 </v>
   <v type="int" >       13 </v>
   <v type="int" >       14 </v>
   <v type="int" >       15 </v>
   <v type="int" >       16 </v>
   <v type="int" >       17 </v>
   <v type="int" >       18 </v>
   <v type="int" >       19 </v>
   <v type="int" >       20 </v>
   <v type="int" >       21 </v>
   <v type="int" >       22 </v>
   <v type="int" >       23 </v>
   <v type="int" >       24 </v>
  </varray>
 </primitive_cell>
 <kpoints>
  <generation param="Gamma">
   <v type="int" name="divisions">      11       12        4 </v>
   <v name="usershift">      0.00000000       0.00000000       0.00000000 </v>
   <v name="genvec1">      0.09090909      -0.00000000       0.00000000 </v>
   <v name="genvec2">      0.00000000       0.08333333       0.00000000 </v>
   <v name="genvec3">      0.00000000       0.00000000       0.25000000 </v>
   <v name="shift">      0.00000000       0.00000000       0.00000000 </v>
  </generation>
  <varray name="kpointlist" >
   <v>       0.00000000       0.00000000       0.00000000 </v>
   <v>       0.09090909       0.00000000       0.00000000 </v>
   <v>       0.18181818       0.00000000       0.00000000 </v>
   <v>       0.27272727       0.00000000       0.00000000 </v>
   <v>       0.36363636       0.00000000       0.00000000 </v>
   <v>       0.45454545       0.00000000       0.00000000 </v>
   <v>       0.00000000       0.08333333       0.00000000 </v>
   <v>       0.09090909       0.08333333       0.00000000 </v>
   <v>      -0.09090909       0.08333333       0.00000000 </v>
   <v>       0.18181818       0.08333333       0.00000000 </v>
   <v>      -0.18181818       0.08333333       0.00000000 </v>
   <v>       0.27272727       0.08333333       0.00000000 </v>
   <v>      -0.27272727       0.08333333       0.00000000 </v>
   <v>       0.36363636       0.08333333       0.00000000 </v>
   <v>      -0.36363636       0.08333333       0.00000000 </v>
   <v>       0.45454545       0.08333333       0.00000000 </v>
   <v>      -0.45454545       0.08333333       0.00000000 </v>
   <v>       0.00000000       0.16666667       0.00000000 </v>
   <v>       0.09090909       0.16666667       0.00000000 </v>
   <v>      -0.09090909       0.16666667       0.00000000 </v>
   <v>       0.18181818       0.16666667       0.00000000 </v>
   <v>      -0.18181818       0.16666667       0.00000000 </v>
   <v>       0.27272727       0.16666667       0.00000000 </v>
   <v>      -0.27272727       0.16666667       0.00000000 </v>
   <v>       0.36363636       0.16666667       0.00000000 </v>
   <v>      -0.36363636       0.16666667       0.00000000 </v>
   <v>       0.45454545       0.16666667       0.00000000 </v>
   <v>      -0.45454545       0.16666667       0.00000000 </v>
   <v>       0.00000000       0.25000000       0.00000000 </v>
   <v>       0.09090909       0.25000000       0.00000000 </v>
   <v>      -0.09090909       0.25000000       0.00000000 </v>
   <v>       0.18181818       0.25000000       0.00000000 </v>
   <v>      -0.18181818       0.25000000       0.00000000 </v>
   <v>       0.27272727       0.25000000       0.00000000 </v>
   <v>      -0.27272727       0.25000000       0.00000000 </v>
   <v>       0.36363636       0.25000000       0.00000000 </v>
   <v>      -0.36363636       0.25000000       0.00000000 </v>
   <v>       0.45454545       0.25000000       0.00000000 </v>
   <v>      -0.45454545       0.25000000       0.00000000 </v>
   <v>       0.00000000       0.33333333       0.00000000 </v>
   <v>       0.09090909       0.33333333       0.00000000 </v>
   <v>      -0.09090909       0.33333333       0.00000000 </v>
   <v>       0.18181818       0.33333333       0.00000000 </v>
   <v>      -0.18181818       0.33333333       0.00000000 </v>
   <v>       0.27272727       0.33333333       0.00000000 </v>
   <v>      -0.27272727       0.33333333       0.00000000 </v>
   <v>       0.36363636       0.33333333       0.00000000 </v>
   <v>      -0.36363636       0.33333333       0.00000000 </v>
   <v>       0.45454545       0.33333333       0.00000000 </v>
   <v>      -0.45454545       0.33333333       0.00000000 </v>
   <v>       0.00000000       0.41666667       0.00000000 </v>
   <v>       0.09090909       0.41666667       0.00000000 </v>
   <v>      -0.09090909       0.41666667       0.00000000 </v>
   <v>       0.18181818       0.41666667       0.00000000 </v>
   <v>      -0.18181818       0.41666667       0.00000000 </v>
   <v>       0.27272727       0.41666667       0.00000000 </v>
   <v>      -0.27272727       0.41666667       0.00000000 </v>
   <v>       0.36363636       0.41666667       0.00000000 </v>
   <v>      -0.36363636       0.41666667       0.00000000 </v>
   <v>       0.45454545       0.41666667       0.00000000 </v>
   <v>      -0.45454545       0.41666667       0.00000000 </v>
   <v>       0.00000000       0.50000000       0.00000000 </v>
   <v>       0.09090909       0.50000000       0.00000000 </v>
   <v>       0.18181818       0.50000000       0.00000000 </v>
   <v>       0.27272727       0.50000000       0.00000000 </v>
   <v>       0.36363636       0.50000000       0.00000000 </v>
   <v>       0.45454545       0.50000000       0.00000000 </v>
   <v>       0.00000000       0.00000000       0.25000000 </v>
   <v>       0.09090909       0.00000000       0.25000000 </v>
   <v>       0.09090909       0.00000000      -0.25000000 </v>
   <v>       0.18181818       0.00000000       0.25000000 </v>
   <v>       0.18181818       0.00000000      -0.25000000 </v>
   <v>       0.27272727       0.00000000       0.25000000 </v>
   <v>       0.27272727       0.00000000      -0.25000000 </v>
   <v>       0.36363636       0.00000000       0.25000000 </v>
   <v>       0.36363636       0.00000000      -0.25000000 </v>
   <v>       0.45454545       0.00000000       0.25000000 </v>
   <v>       0.45454545       0.00000000      -0.25000000 </v>
   <v>       0.00000000       0.08333333       0.25000000 </v>
   <v>       0.00000000       0.08333333      -0.25000000 </v>
   <v>       0.09090909       0.08333333       0.25000000 </v>
   <v>      -0.09090909       0.08333333      -0.25000000 </v>
   <v>       0.09090909      -0.08333333      -0.25000000 </v>
   <v>      -0.09090909      -0.08333333       0.25000000 </v>
   <v>       0.18181818       0.08333333       0.25000000 </v>
   <v>      -0.18181818       0.08333333      -0.25000000 </v>
   <v>       0.18181818      -0.08333333      -0.25000000 </v>
   <v>      -0.18181818      -0.08333333       0.25000000 </v>
   <v>       0.27272727       0.08333333       0.25000000 </v>
   <v>      -0.27272727       0.08333333      -0.25000000 </v>
   <v>       0.27272727      -0.08333333      -0.25000000 </v>
   <v>      -0.27272727      -0.08333333       0.25000000 </v>
   <v>       0.36363636       0.08333333       0.25000000 </v>
   <v>      -0.36363636       0.08333333      -0.25000000 </v>
   <v>       0.36363636      -0.08333333      -0.25000000 </v>
   <v>      -0.36363636      -0.08333333       0.25000000 </v>
   <v>       0.45454545       0.08333333       0.25000000 </v>
   <v>      -0.45454545       0.08333333      -0.25000000 </v>
   <v>       0.45454545      -0.08333333      -0.25000000 </v>
   <v>      -0.45454545      -0.08333333       0.25000000 </v>
   <v>       0.00000000       0.16666667       0.25000000 </v>
   <v>       0.00000000       0.16666667      -0.25000000 </v>
   <v>       0.09090909       0.16666667       0.25000000 </v>
   <v>      -0.09090909       0.16666667      -0.25000000 </v>
   <v>       0.09090909      -0.16666667      -0.25000000 </v>
   <v>      -0.09090909      -0.16666667       0.25000000 </v>
   <v>       0.18181818       0.16666667       0.25000000 </v>
   <v>      -0.18181818       0.16666667      -0.25000000 </v>
   <v>       0.18181818      -0.16666667      -0.25000000 </v>
   <v>      -0.18181818      -0.16666667       0.25000000 </v>
   <v>       0.27272727       0.16666667       0.25000000 </v>
   <v>      -0.27272727       0.16666667      -0.25000000 </v>
   <v>       0.27272727      -0.16666667      -0.25000000 </v>
   <v>      -0.27272727      -0.16666667       0.25000000 </v>
   <v>       0.36363636       0.16666667       0.25000000 </v>
   <v>      -0.36363636       0.16666667      -0.25000000 </v>
   <v>       0.36363636      -0.16666667      -0.25000000 </v>
   <v>      -0.36363636      -0.16666667       0.25000000 </v>
   <v>       0.45454545       0.16666667       0.25000000 </v>
   <v>      -0.45454545       0.16666667      -0.25000000 </v>
   <v>       0.45454545      -0.16666667      -0.25000000 </v>
   <v>      -0.45454545      -0.16666667       0.25000000 </v>
   <v>       0.00000000       0.25000000       0.25000000 </v>
   <v>       0.00000000       0.25000000      -0.25000000 </v>
   <v>       0.09090909       0.25000000       0.25000000 </v>
   <v>      -0.09090909       0.25000000      -0.25000000 </v>
   <v>       0.09090909      -0.25000000      -0.25000000 </v>
   <v>      -0.09090909      -0.25000000       0.25000000 </v>
   <v>       0.18181818       0.25000000       0.25000000 </v>
   <v>      -0.18181818       0.25000000      -0.25000000 </v>
   <v>       0.18181818      -0.25000000      -0.25000000 </v>
   <v>      -0.18181818      -0.25000000       0.25000000 </v>
   <v>       0.27272727       0.25000000       0.25000000 </v>
   <v>      -0.27272727       0.25000000      -0.25000000 </v>
   <v>       0.27272727      -0.25000000      -0.25000000 </v>
   <v>      -0.27272727      -0.25000000       0.25000000 </v>
   <v>       0.36363636       0.25000000       0.25000000 </v>
   <v>      -0.36363636       0.25000000      -0.25000000 </v>
   <v>       0.36363636      -0.25000000      -0.25000000 </v>
   <v>      -0.36363636      -0.25000000       0.25000000 </v>
   <v>       0.45454545       0.25000000       0.25000000 </v>
   <v>      -0.45454545       0.25000000      -0.25000000 </v>
   <v>       0.45454545      -0.25000000      -0.25000000 </v>
   <v>      -0.45454545      -0.25000000       0.25000000 </v>
   <v>       0.00000000       0.33333333       0.25000000 </v>
   <v>       0.00000000       0.33333333      -0.25000000 </v>
   <v>       0.09090909       0.33333333       0.25000000 </v>
   <v>      -0.09090909       0.33333333      -0.25000000 </v>
   <v>       0.09090909      -0.33333333      -0.25000000 </v>
   <v>      -0.09090909      -0.33333333       0.25000000 </v>
   <v>       0.18181818       0.33333333       0.25000000 </v>
   <v>      -0.18181818       0.33333333      -0.25000000 </v>
   <v>       0.18181818      -0.33333333      -0.25000000 </v>
   <v>      -0.18181818      -0.33333333       0.25000000 </v>
   <v>       0.27272727       0.33333333       0.25000000 </v>
   <v>      -0.27272727       0.33333333      -0.25000000 </v>
   <v>       0.27272727      -0.33333333      -0.25000000 </v>
   <v>      -0.27272727      -0.33333333       0.25000000 </v>
   <v>       0.36363636       0.33333333       0.25000000 </v>
   <v>      -0.36363636       0.33333333      -0.25000000 </v>
   <v>       0.36363636      -0.33333333      -0.25000000 </v>
   <v>      -0.36363636      -0.33333333       0.25000000 </v>
   <v>       0.45454545       0.33333333       0.25000000 </v>
   <v>      -0.45454545       0.33333333      -0.25000000 </v>
   <v>       0.45454545      -0.33333333      -0.25000000 </v>
   <v>      -0.45454545      -0.33333333       0.25000000 </v>
   <v>       0.00000000       0.41666667       0.25000000 </v>
   <v>       0.00000000       0.41666667      -0.25000000 </v>
   <v>       0.09090909       0.41666667       0.25000000 </v>
   <v>      -0.09090909       0.41666667      -0.25000000 </v>
   <v>       0.09090909      -0.41666667      -0.25000000 </v>
   <v>      -0.09090909      -0.41666667       0.25000000 </v>
   <v>       0.18181818       0.41666667       0.25000000 </v>
   <v>      -0.18181818       0.41666667      -0.25000000 </v>
   <v>       0.18181818      -0.41666667      -0.25000000 </v>
   <v>      -0.18181818      -0.41666667       0.25000000 </v>
   <v>       0.27272727       0.41666667       0.25000000 </v>
   <v>      -0.27272727       0.41666667      -0.25000000 </v>
   <v>       0.27272727      -0.41666667      -0.25000000 </v>
   <v>      -0.27272727      -0.41666667       0.25000000 </v>
   <v>       0.36363636       0.41666667       0.25000000 </v>
   <v>      -0.36363636       0.41666667      -0.25000000 </v>
   <v>       0.36363636      -0.41666667      -0.25000000 </v>
   <v>      -0.36363636      -0.41666667       0.25000000 </v>
   <v>       0.45454545       0.41666667       0.25000000 </v>
   <v>      -0.45454545       0.41666667      -0.25000000 </v>
   <v>       0.45454545      -0.41666667      -0.25000000 </v>
   <v>      -0.45454545      -0.41666667       0.25000000 </v>
   <v>       0.00000000       0.50000000       0.25000000 </v>
   <v>       0.09090909       0.50000000       0.25000000 </v>
   <v>       0.09090909       0.50000000      -0.25000000 </v>
   <v>       0.18181818       0.50000000       0.25000000 </v>
   <v>       0.18181818       0.50000000      -0.25000000 </v>
   <v>       0.27272727       0.50000000       0.25000000 </v>
   <v>       0.27272727       0.50000000      -0.25000000 </v>
   <v>       0.36363636       0.50000000       0.25000000 </v>
   <v>       0.36363636       0.50000000      -0.25000000 </v>
   <v>       0.45454545       0.50000000       0.25000000 </v>
   <v>       0.45454545       0.50000000      -0.25000000 </v>
   <v>       0.00000000       0.00000000       0.50000000 </v>
   <v>       0.09090909       0.00000000       0.50000000 </v>
   <v>       0.18181818       0.00000000       0.50000000 </v>
   <v>       0.27272727       0.00000000       0.50000000 </v>
   <v>       0.36363636       0.00000000       0.50000000 </v>
   <v>       0.45454545       0.00000000       0.50000000 </v>
   <v>       0.00000000       0.08333333       0.50000000 </v>
   <v>       0.09090909       0.08333333       0.50000000 </v>
   <v>      -0.09090909       0.08333333       0.50000000 </v>
   <v>       0.18181818       0.08333333       0.50000000 </v>
   <v>      -0.18181818       0.08333333       0.50000000 </v>
   <v>       0.27272727       0.08333333       0.50000000 </v>
   <v>      -0.27272727       0.08333333       0.50000000 </v>
   <v>       0.36363636       0.08333333       0.50000000 </v>
   <v>      -0.36363636       0.08333333       0.50000000 </v>
   <v>       0.45454545       0.08333333       0.50000000 </v>
   <v>      -0.45454545       0.08333333       0.50000000 </v>
   <v>       0.00000000       0.16666667       0.50000000 </v>
   <v>       0.09090909       0.16666667       0.50000000 </v>
   <v>      -0.09090909       0.16666667       0.50000000 </v>
   <v>       0.18181818       0.16666667       0.50000000 </v>
   <v>      -0.18181818       0.16666667       0.50000000 </v>
   <v>       0.27272727       0.16666667       0.50000000 </v>
   <v>      -0.27272727       0.16666667       0.50000000 </v>
   <v>       0.36363636       0.16666667       0.50000000 </v>
   <v>      -0.36363636       0.16666667       0.50000000 </v>
   <v>       0.45454545       0.16666667       0.50000000 </v>
   <v>      -0.45454545       0.16666667       0.50000000 </v>
   <v>       0.00000000       0.25000000       0.50000000 </v>
   <v>       0.09090909       0.25000000       0.50000000 </v>
   <v>      -0.09090909       0.25000000       0.50000000 </v>
   <v>       0.18181818       0.25000000       0.50000000 </v>
   <v>      -0.18181818       0.25000000       0.50000000 </v>
   <v>       0.27272727       0.25000000       0.50000000 </v>
   <v>      -0.27272727       0.25000000       0.50000000 </v>
   <v>       0.36363636       0.25000000       0.50000000 </v>
   <v>      -0.36363636       0.25000000       0.50000000 </v>
   <v>       0.45454545       0.25000000       0.50000000 </v>
   <v>      -0.45454545       0.25000000       0.50000000 </v>
   <v>       0.00000000       0.33333333       0.50000000 </v>
   <v>       0.09090909       0.33333333       0.50000000 </v>
   <v>      -0.09090909       0.33333333       0.50000000 </v>
   <v>       0.18181818       0.33333333       0.50000000 </v>
   <v>      -0.18181818       0.33333333       0.50000000 </v>
   <v>       0.27272727       0.33333333       0.50000000 </v>
   <v>      -0.27272727       0.33333333       0.50000000 </v>
   <v>       0.36363636       0.33333333       0.50000000 </v>
   <v>      -0.36363636       0.33333333       0.50000000 </v>
   <v>       0.45454545       0.33333333       0.50000000 </v>
   <v>      -0.45454545       0.33333333       0.50000000 </v>
   <v>       0.00000000       0.41666667       0.50000000 </v>
   <v>       0.09090909       0.41666667       0.50000000 </v>
   <v>      -0.09090909       0.41666667       0.50000000 </v>
   <v>       0.18181818       0.41666667       0.50000000 </v>
   <v>      -0.18181818       0.41666667       0.50000000 </v>
   <v>       0.27272727       0.41666667       0.50000000 </v>
   <v>      -0.27272727       0.41666667       0.50000000 </v>
   <v>       0.36363636       0.41666667       0.50000000 </v>
   <v>      -0.36363636       0.41666667       0.50000000 </v>
   <v>       0.45454545       0.41666667       0.50000000 </v>
   <v>      -0.45454545       0.41666667       0.50000000 </v>
   <v>       0.00000000       0.50000000       0.50000000 </v>
   <v>       0.09090909       0.50000000       0.50000000 </v>
   <v>       0.18181818       0.50000000       0.50000000 </v>
   <v>       0.27272727       0.50000000       0.50000000 </v>
   <v>       0.36363636       0.50000000       0.50000000 </v>
   <v>       0.45454545       0.50000000       0.50000000 </v>
  </varray>
  <varray name="weights" >
   <v>       0.00189394 </v>
   <v>       0.00378788 </v>
   <v>       0.00378788 </v>
   <v>       0.00378788 </v>
   <v>       0.00378788 </v>
   <v>       0.00378788 </v>
   <v>       0.00378788 </v>
   <v>       0.00378788 </v>
   <v>       0.00378788 </v>
   <v>       0.00378788 </v>
   <v>       0.00378788 </v>
   <v>       0.00378788 </v>
   <v>       0.00378788 </v>
   <v>       0.00378788 </v>
   <v>       0.00378788 </v>
   <v>       0.00378788 </v>
   <v>       0.00378788 </v>
   <v>       0.00378788 </v>
   <v>       0.00378788 </v>
   <v>       0.00378788 </v>
   <v>       0.00378788 </v>
   <v>       0.00378788 </v>
   <v>       0.00378788 </v>
   <v>       0.00378788 </v>
   <v>       0.00378788 </v>
   <v>       0.00378788 </v>
   <v>       0.00378788 </v>
   <v>       0.00378788 </v>
   <v>       0.00378788 </v>
   <v>       0.00378788 </v>
   <v>       0.00378788 </v>
   <v>       0.00378788 </v>
   <v>       0.00378788 </v>
   <v>       0.00378788 </v>
   <v>       0.00378788 </v>
   <v>       0.00378788 </v>
   <v>       0.00378788 </v>
   <v>       0.00378788 </v>
   <v>       0.00378788 </v>
   <v>       0.00378788 </v>
   <v>       0.00378788 </v>
   <v>       0.00378788 </v>
   <v>       0.00378788 </v>
   <v>       0.00378788 </v>
   <v>       0.00378788 </v>
   <v>       0.00378788 </v>
   <v>       0.00378788 </v>
   <v>       0.00378788 </v>
   <v>       0.00378788 </v>
   <v>       0.00378788 </v>
   <v>       0.00378788 </v>
   <v>       0.00378788 </v>
   <v>       0.00378788 </v>
   <v>       0.00378788 </v>
   <v>       0.00378788 </v>
   <v>       0.00378788 </v>
   <v>       0.00378788 </v>
   <v>       0.00378788 </v>
   <v>       0.00378788 </v>
   <v>       0.00378788 </v>
   <v>       0.00378788 </v>
   <v>       0.00189394 </v>
   <v>       0.00378788 </v>
   <v>       0.00378788 </v>
   <v>       0.00378788 </v>
   <v>       0.00378788 </v>
   <v>       0.00378788 </v>
   <v>       0.00378788 </v>
   <v>       0.00378788 </v>
   <v>       0.00378788 </v>
   <v>       0.00378788 </v>
   <v>       0.00378788 </v>
   <v>       0.00378788 </v>
   <v>       0.00378788 </v>
   <v>       0.00378788 </v>
   <v>       0.00378788 </v>
   <v>       0.00378788 </v>
   <v>       0.00378788 </v>
   <v>       0.00378788 </v>
   <v>       0.00378788 </v>
   <v>       0.00378788 </v>
   <v>       0.00378788 </v>
   <v>       0.00378788 </v>
   <v>       0.00378788 </v>
   <v>       0.00378788 </v>
   <v>       0.00378788 </v>
   <v>       0.00378788 </v>
   <v>       0.00378788 </v>
   <v>       0.00378788 </v>
   <v>       0.00378788 </v>
   <v>       0.00378788 </v>
   <v>       0.00378788 </v>
   <v>       0.00378788 </v>
   <v>       0.00378788 </v>
   <v>       0.00378788 </v>
   <v>       0.00378788 </v>
   <v>       0.00378788 </v>
   <v>       0.00378788 </v>
   <v>       0.00378788 </v>
   <v>       0.00378788 </v>
   <v>       0.00378788 </v>
   <v>       0.00378788 </v>
   <v>       0.00378788 </v>
   <v>       0.00378788 </v>
   <v>       0.00378788 </v>
   <v>       0.00378788 </v>
   <v>       0.00378788 </v>
   <v>       0.00378788 </v>
   <v>       0.00378788 </v>
   <v>       0.00378788 </v>
   <v>       0.00378788 </v>
   <v>       0.00378788 </v>
   <v>       0.00378788 </v>
   <v>       0.00378788 </v>
   <v>       0.00378788 </v>
   <v>       0.00378788 </v>
   <v>       0.00378788 </v>
   <v>       0.00378788 </v>
   <v>       0.00378788 </v>
   <v>       0.00378788 </v>
   <v>       0.00378788 </v>
   <v>       0.00378788 </v>
   <v>       0.00378788 </v>
   <v>       0.00378788 </v>
   <v>       0.00378788 </v>
   <v>       0.00378788 </v>
   <v>       0.00378788 </v>
   <v>       0.00378788 </v>
   <v>       0.00378788 </v>
   <v>       0.00378788 </v>
   <v>       0.00378788 </v>
   <v>       0.00378788 </v>
   <v>       0.00378788 </v>
   <v>       0.00378788 </v>
   <v>       0.00378788 </v>
   <v>       0.00378788 </v>
   <v>       0.00378788 </v>
   <v>       0.00378788 </v>
   <v>       0.00378788 </v>
   <v>       0.00378788 </v>
   <v>       0.00378788 </v>
   <v>       0.00378788 </v>
   <v>       0.00378788 </v>
   <v>       0.00378788 </v>
   <v>       0.00378788 </v>
   <v>       0.00378788 </v>
   <v>       0.00378788 </v>
   <v>       0.00378788 </v>
   <v>       0.00378788 </v>
   <v>       0.00378788 </v>
   <v>       0.00378788 </v>
   <v>       0.00378788 </v>
   <v>       0.00378788 </v>
   <v>       0.00378788 </v>
   <v>       0.00378788 </v>
   <v>       0.00378788 </v>
   <v>       0.00378788 </v>
   <v>       0.00378788 </v>
   <v>       0.00378788 </v>
   <v>       0.00378788 </v>
   <v>       0.00378788 </v>
   <v>       0.00378788 </v>
   <v>       0.00378788 </v>
   <v>       0.00378788 </v>
   <v>       0.00378788 </v>
   <v>       0.00378788 </v>
   <v>       0.00378788 </v>
   <v>       0.00378788 </v>
   <v>       0.00378788 </v>
   <v>       0.00378788 </v>
   <v>       0.00378788 </v>
   <v>       0.00378788 </v>
   <v>       0.00378788 </v>
   <v>       0.00378788 </v>
   <v>       0.00378788 </v>
   <v>       0.00378788 </v>
   <v>       0.00378788 </v>
   <v>       0.00378788 </v>
   <v>       0.00378788 </v>
   <v>       0.00378788 </v>
   <v>       0.00378788 </v>
   <v>       0.00378788 </v>
   <v>       0.00378788 </v>
   <v>       0.00378788 </v>
   <v>       0.00378788 </v>
   <v>       0.00378788 </v>
   <v>       0.00378788 </v>
   <v>       0.00378788 </v>
   <v>       0.00378788 </v>
   <v>       0.00378788 </v>
   <v>       0.00378788 </v>
   <v>       0.00378788 </v>
   <v>       0.00378788 </v>
   <v>       0.00378788 </v>
   <v>       0.00378788 </v>
   <v>       0.00378788 </v>
   <v>       0.00378788 </v>
   <v>       0.00378788 </v>
   <v>       0.00378788 </v>
   <v>       0.00189394 </v>
   <v>       0.00378788 </v>
   <v>       0.00378788 </v>
   <v>       0.00378788 </v>
   <v>       0.00378788 </v>
   <v>       0.00378788 </v>
   <v>       0.00378788 </v>
   <v>       0.00378788 </v>
   <v>       0.00378788 </v>
   <v>       0.00378788 </v>
   <v>       0.00378788 </v>
   <v>       0.00378788 </v>
   <v>       0.00378788 </v>
   <v>       0.00378788 </v>
   <v>       0.00378788 </v>
   <v>       0.00378788 </v>
   <v>       0.00378788 </v>
   <v>       0.00378788 </v>
   <v>       0.00378788 </v>
   <v>       0.00378788 </v>
   <v>       0.00378788 </v>
   <v>       0.00378788 </v>
   <v>       0.00378788 </v>
   <v>       0.00378788 </v>
   <v>       0.00378788 </v>
   <v>       0.00378788 </v>
   <v>       0.00378788 </v>
   <v>       0.00378788 </v>
   <v>       0.00378788 </v>
   <v>       0.00378788 </v>
   <v>       0.00378788 </v>
   <v>       0.00378788 </v>
   <v>       0.00378788 </v>
   <v>       0.00378788 </v>
   <v>       0.00378788 </v>
   <v>       0.00378788 </v>
   <v>       0.00378788 </v>
   <v>       0.00378788 </v>
   <v>       0.00378788 </v>
   <v>       0.00378788 </v>
   <v>       0.00378788 </v>
   <v>       0.00378788 </v>
   <v>       0.00378788 </v>
   <v>       0.00378788 </v>
   <v>       0.00378788 </v>
   <v>       0.00378788 </v>
   <v>       0.00378788 </v>
   <v>       0.00378788 </v>
   <v>       0.00378788 </v>
   <v>       0.00378788 </v>
   <v>       0.00378788 </v>
   <v>       0.00378788 </v>
   <v>       0.00378788 </v>
   <v>       0.00378788 </v>
   <v>       0.00378788 </v>
   <v>       0.00378788 </v>
   <v>       0.00378788 </v>
   <v>       0.00378788 </v>
   <v>       0.00378788 </v>
   <v>       0.00378788 </v>
   <v>       0.00378788 </v>
   <v>       0.00189394 </v>
   <v>       0.00378788 </v>
   <v>       0.00378788 </v>
   <v>       0.00378788 </v>
   <v>       0.00378788 </v>
   <v>       0.00378788 </v>
  </varray>
 </kpoints>
 <parameters>
  <separator name="general" >
   <i type="string" name="SYSTEM">unknown system</i>
   <i type="logical" name="LCOMPAT"> F  </i>
  </separator>
  <separator name="electronic" >
   <i type="string" name="PREC">accura</i>
   <i name="ENMAX">    900.00000000</i>
   <i name="ENAUG">   1514.19200000</i>
   <i name="EDIFF">      0.00000010</i>
   <i type="int" name="IALGO">    38</i>
   <i type="int" name="IWAVPR">    10</i>
   <i type="int" name="NBANDS">    40</i>
   <i type="int" name="NBANDSLOW">    -1</i>
   <i type="int" name="NBANDSHIGH">    -1</i>
   <i name="NELECT">     48.00000000</i>
   <i type="int" name="TURBO">     0</i>
   <i type="int" name="IRESTART">     0</i>
   <i type="int" name="NREBOOT">     0</i>
   <i type="int" name="NMIN">     0</i>
   <i name="EREF">      0.00000000</i>
   <separator name="electronic smearing" >
    <i type="int" name="ISMEAR">     0</i>
    <i name="SIGMA">      0.01000000</i>
    <i name="KSPACING">      0.50000000</i>
    <i type="logical" name="KGAMMA"> T  </i>
    <i type="logical" name="KBLOWUP"> T  </i>
   </separator>
   <separator name="electronic projectors" >
    <i type="logical" name="LREAL"> F  </i>
    <v name="ROPT">      0.00000000</v>
    <i type="int" name="LMAXPAW">  -100</i>
    <i type="int" name="LMAXMIX">     2</i>
    <i type="logical" name="NLSPLINE"> F  </i>
   </separator>
   <separator name="electronic startup" >
    <i type="int" name="ISTART">     0</i>
    <i type="int" name="ICHARG">     2</i>
    <i type="int" name="INIWAV">     1</i>
   </separator>
   <separator name="electronic spin" >
    <i type="int" name="ISPIN">     1</i>
    <i type="logical" name="LNONCOLLINEAR"> F  </i>
    <v name="MAGMOM">      1.00000000      1.00000000      1.00000000      1.00000000      1.00000000      1.00000000      1.00000000      1.00000000      1.00000000      1.00000000      1.00000000      1.00000000      1.00000000      1.00000000      1.00000000      1.00000000      1.00000000      1.00000000      1.00000000      1.00000000
      1.00000000      1.00000000      1.00000000      1.00000000</v>
    <i name="NUPDOWN">     -1.00000000</i>
    <i type="logical" name="LSORBIT"> F  </i>
    <v name="SAXIS">      0.00000000      0.00000000      1.00000000</v>
    <i type="logical" name="LSPIRAL"> F  </i>
    <v name="QSPIRAL">      0.00000000      0.00000000      0.00000000</v>
    <i type="logical" name="LZEROZ"> F  </i>
   </separator>
   <separator name="electronic exchange-correlation" >
    <i type="logical" name="LASPH"> F  </i>
   </separator>
   <separator name="electronic convergence" >
    <i type="int" name="NELM">    60</i>
    <i type="int" name="NELMDL">    -5</i>
    <i type="int" name="NELMIN">     2</i>
    <i name="ENINI">    900.00000000</i>
    <separator name="electronic convergence detail" >
     <i type="logical" name="LDIAG"> T  </i>
     <i type="logical" name="LSUBROT"> F  </i>
     <i name="WEIMIN">      0.00000000</i>
     <i name="EBREAK">      0.00000000</i>
     <i name="DEPER">      0.30000000</i>
     <i type="int" name="NRMM">     4</i>
     <i name="TIME">      0.40000000</i>
    </separator>
   </separator>
   <separator name="electronic mixer" >
    <i name="AMIX">      0.40000000</i>
    <i name="BMIX">      1.00000000</i>
    <i name="AMIN">      0.10000000</i>
    <i name="AMIX_MAG">      1.60000000</i>
    <i name="BMIX_MAG">      1.00000000</i>
    <separator name="electronic mixer details" >
     <i type="int" name="IMIX">     4</i>
     <i type="logical" name="MIXFIRST"> F  </i>
     <i type="int" name="MAXMIX">   -45</i>
     <i name="WC">    100.00000000</i>
     <i type="int" name="INIMIX">     1</i>
     <i type="int" name="MIXPRE">     1</i>
     <i type="int" name="MREMOVE">     5</i>
    </separator>
   </separator>
   <separator name="electronic dipolcorrection" >
    <i type="logical" name="LDIPOL"> F  </i>
    <i type="logical" name="LMONO"> F  </i>
    <i type="int" name="IDIPOL">     0</i>
    <i name="EPSILON">      1.00000000</i>
    <v name="DIPOL">   -100.00000000   -100.00000000   -100.00000000</v>
    <i name="EFIELD">      0.00000000</i>
    <i type="logical" name="LVACPOTAV"> F  </i>
   </separator>
  </separator>
  <separator name="grids" >
   <i type="int" name="NGX">    40</i>
   <i type="int" name="NGY">    36</i>
   <i type="int" name="NGZ">    96</i>
   <i type="int" name="NGXF">    80</i>
   <i type="int" name="NGYF">    72</i>
   <i type="int" name="NGZF">   192</i>
   <i type="logical" name="ADDGRID"> F  </i>
  </separator>
  <separator name="ionic" >
   <i type="int" name="NSW">     0</i>
   <i type="int" name="IBRION">    -1</i>
   <i type="int" name="MDALGO">     0</i>
   <i type="int" name="ISIF">     2</i>
   <i name="PSTRESS">      0.00000000</i>
   <i name="EDIFFG">      0.00000100</i>
   <i type="int" name="NFREE">     0</i>
   <i name="POTIM">      0.50000000</i>
   <i name="SMASS">     -3.00000000</i>
   <i name="SCALEE">      1.00000000</i>
  </separator>
  <separator name="ionic md" >
   <i name="TEBEG">      0.00010000</i>
   <i name="TEEND">      0.00010000</i>
   <i type="int" name="NBLOCK">     1</i>
   <i type="int" name="KBLOCK">     1</i>
   <i type="int" name="NPACO">   256</i>
   <i name="APACO">     10.00000000</i>
  </separator>
  <separator name="symmetry" >
   <i type="int" name="ISYM">     2</i>
   <i name="SYMPREC">      0.00001000</i>
  </separator>
  <separator name="dos" >
   <i type="int" name="LORBIT">     0</i>
   <v name="RWIGS">     -1.00000000</v>
   <i type="int" name="NEDOS">   301</i>
   <i name="EMIN">     10.00000000</i>
   <i name="EMAX">    -10.00000000</i>
   <i name="EFERMI">      0.00000000</i>
  </separator>
  <separator name="writing" >
   <i type="int" name="NWRITE">     2</i>
   <i type="logical" name="LWAVE"> F  </i>
   <i type="logical" name="LDOWNSAMPLE"> F  </i>
   <i type="logical" name="LCHARG"> F  </i>
   <i type="logical" name="LPARD"> F  </i>
   <i type="logical" name="LVTOT"> F  </i>
   <i type="logical" name="LVHAR"> F  </i>
   <i type="logical" name="LELF"> F  </i>
   <i type="logical" name="LOPTICS"> F  </i>
   <v name="STM">      0.00000000      0.00000000      0.00000000      0.00000000      0.00000000      0.00000000      0.00000000</v>
  </separator>
  <separator name="performance" >
   <i type="int" name="NPAR">     4</i>
   <i type="int" name="NSIM">     4</i>
   <i type="int" name="NBLK">    -1</i>
   <i type="logical" name="LPLANE"> T  </i>
   <i type="logical" name="LSCALAPACK"> T  </i>
   <i type="logical" name="LSCAAWARE"> F  </i>
   <i type="logical" name="LSCALU"> F  </i>
   <i type="logical" name="LASYNC"> F  </i>
   <i type="logical" name="LORBITALREAL"> F  </i>
  </separator>
  <separator name="miscellaneous" >
   <i type="int" name="IDIOT">     3</i>
   <i type="int" name="PHON_NSTRUCT">    -1</i>
   <i type="logical" name="LMUSIC"> F  </i>
   <v name="POMASS">      4.00000000</v>
   <v name="DARWINR">      0.00000000</v>
   <v name="DARWINV">      1.00000000</v>
   <i type="logical" name="LCORR"> T  </i>
  </separator>
  <i type="logical" name="GGA_COMPAT"> T  </i>
  <i type="logical" name="LBERRY"> F  </i>
  <i type="int" name="ICORELEVEL">     0</i>
  <i type="logical" name="LDAU"> F  </i>
  <i type="int" name="I_CONSTRAINED_M">     0</i>
  <separator name="electronic exchange-correlation" >
   <i type="string" name="GGA    ">PE</i>
   <i type="string" name="XC_C">1</i>
   <i type="int" name="VOSKOWN">     0</i>
   <i type="logical" name="LHFCALC"> F  </i>
   <i type="string" name="PRECFOCK"></i>
   <i type="logical" name="LSYMGRAD"> F  </i>
   <i type="logical" name="LHFONE"> F  </i>
   <i type="logical" name="LRHFCALC"> F  </i>
   <i type="logical" name="LTHOMAS"> F  </i>
   <i type="logical" name="LMODELHF"> F  </i>
   <i type="logical" name="LFOCKACE"> F  </i>
   <i name="ENCUT4O">     -1.00000000</i>
   <i type="int" name="EXXOEP">     0</i>
   <i type="int" name="FOURORBIT">     0</i>
   <i name="AEXX">      0.00000000</i>
   <i name="HFALPHA">      0.00000000</i>
   <i name="MCALPHA">      0.00000000</i>
   <i name="ALDAX">      1.00000000</i>
   <i name="AGGAX">      1.00000000</i>
   <i name="AMGGAX">      1.00000000</i>
   <i name="ALDAC">      1.00000000</i>
   <i name="AGGAC">      1.00000000</i>
   <i name="AMGGAC">      1.00000000</i>
   <i type="int" name="NKREDX">     1</i>
   <i type="int" name="NKREDY">     1</i>
   <i type="int" name="NKREDZ">     1</i>
   <i type="logical" name="SHIFTRED"> F  </i>
   <i type="logical" name="ODDONLY"> F  </i>
   <i type="logical" name="EVENONLY"> F  </i>
   <i type="int" name="LMAXFOCK">     0</i>
   <i type="int" name="NMAXFOCKAE">     0</i>
   <i type="logical" name="LFOCKAEDFT"> F  </i>
   <i name="HFSCREEN">      0.00000000</i>
   <i name="HFSCREENC">      0.00000000</i>
   <i type="int" name="NBANDSGWLOW">     0</i>
  </separator>
  <separator name="vdW DFT" >
   <i type="logical" name="LUSE_VDW"> F  </i>
   <i type="int" name="IVDW_NL">    -1</i>
   <i type="logical" name="LSPIN_VDW"> F  </i>
   <i name="ZAB_VDW">     -0.84910000</i>
   <i name="GAMMA_VDW">      1.39626340</i>
   <i name="ALPHA_VDW">      0.00000000</i>
   <i name="PARAM1">      0.12340000</i>
   <i name="PARAM2">      1.00000000</i>
   <i name="BPARAM">      6.30000000</i>
   <i name="CPARAM">      0.00930000</i>
  </separator>
  <separator name="model GW" >
   <i type="int" name="MODEL_GW">     0</i>
   <i name="MODEL_EPS0">      3.16308025</i>
   <i name="MODEL_ALPHA">      1.00000000</i>
  </separator>
  <separator name="linear response parameters" >
   <i type="logical" name="LEPSILON"> F  </i>
   <i type="logical" name="LRPA"> F  </i>
   <i type="logical" name="LNABLA"> F  </i>
   <i type="logical" name="LVEL"> F  </i>
   <i name="CSHIFT">      0.10000000</i>
   <i name="OMEGAMAX">     -1.00000000</i>
   <i name="DEG_THRESHOLD">      0.00200000</i>
   <i name="RTIME">     -0.10000000</i>
   <i name="WPLASMAI">      0.00000000</i>
   <v name="DFIELD">      0.00000000      0.00000000      0.00000000</v>
   <v name="WPLASMA">      0.00000000      0.00000000      0.00000000      0.00000000      0.00000000      0.00000000      0.00000000      0.00000000      0.00000000</v>
  </separator>
  <separator name="orbital magnetization" >
   <i type="logical" name="NUCIND"> F  </i>
   <v name="MAGPOS">      0.00000000      0.00000000      0.00000000</v>
   <i type="logical" name="LNICSALL"> T  </i>
   <i type="logical" name="ORBITALMAG"> F  </i>
   <i type="logical" name="LMAGBLOCH"> F  </i>
   <i type="logical" name="LCHIMAG"> F  </i>
   <i type="logical" name="LGAUGE"> T  </i>
   <i type="int" name="MAGATOM">     0</i>
   <v name="MAGDIPOL">      0.00000000      0.00000000      0.00000000</v>
   <v name="AVECCONST">      0.00000000      0.00000000      0.00000000</v>
  </separator>
  <separator name="response functions" >
   <i type="logical" name="LALL_IN_ONE"> F  </i>
   <i type="int" name="IALL_IN_ONE">    -1</i>
   <i type="int" name="NBANDS_WAVE">    -1</i>
   <i type="logical" name="LFINITE_TEMPERATURE"> F  </i>
   <i type="logical" name="LADDER"> F  </i>
   <i type="logical" name="LRPAFORCE"> F  </i>
   <i type="logical" name="LFXC"> F  </i>
   <i type="logical" name="LHARTREE"> T  </i>
   <i type="int" name="IBSE">     0</i>
   <v type="int" name="KPOINT">    -1     0     0     0</v>
   <i type="logical" name="LTCTC"> F  </i>
   <i type="logical" name="LTCTE"> F  </i>
   <i type="logical" name="LTETE"> F  </i>
   <i type="logical" name="LTRIPLET"> F  </i>
   <i type="logical" name="LFXCEPS"> F  </i>
   <i type="logical" name="LFXHEG"> F  </i>
   <i type="int" name="NATURALO">     2</i>
   <i type="logical" name="LHOLEGF"> F  </i>
   <i type="logical" name="L2ORDER"> F  </i>
   <i type="logical" name="LDMP1"> F  </i>
   <i type="logical" name="LMP2LT"> F  </i>
   <i type="logical" name="LSMP2LT"> F  </i>
   <i type="logical" name="LGWLF"> F  </i>
   <i name="ENCUTGW">     -1.60000002</i>
   <i name="ENCUTGWSOFT">     -1.60000002</i>
   <i name="ENCUTLF">     -1.00000000</i>
   <i type="logical" name="ESF_SPLINES"> F  </i>
   <i name="ESF_CONV">      0.01000000</i>
   <i type="int" name="ESF_NINTER">    15</i>
   <i type="int" name="LMAXMP2">    -1</i>
   <i name="SCISSOR">      0.00000000</i>
   <i type="int" name="NOMEGA">     0</i>
   <i type="int" name="NOMEGAR">     0</i>
   <i type="int" name="NBANDSGW">    -1</i>
   <i type="int" name="NBANDSO">    -1</i>
   <i type="int" name="NBANDSV">    -1</i>
   <i type="int" name="NELMGW">     1</i>
   <i type="int" name="NELMHF">     1</i>
   <i type="int" name="DIM">     3</i>
   <i type="int" name="IESPILON">     4</i>
   <i type="int" name="ANTIRES">     0</i>
   <i name="OMEGAMAX">    -30.00000000</i>
   <i name="OMEGAMIN">    -30.00000000</i>
   <i name="OMEGATL">   -200.00000000</i>
   <i type="int" name="OMEGAGRID">     0</i>
   <i name="CSHIFT">     -0.10000000</i>
   <i type="logical" name="LSELFENERGY"> F  </i>
   <i type="logical" name="LSPECTRAL"> F  </i>
   <i type="logical" name="LSPECTRALGW"> F  </i>
   <i type="logical" name="LSINGLES"> F  </i>
   <i type="logical" name="LFERMIGW"> F  </i>
   <i type="logical" name="ODDONLYGW"> F  </i>
   <i type="logical" name="EVENONLYGW"> F  </i>
   <i type="int" name="NKREDLFX">     1</i>
   <i type="int" name="NKREDLFY">     1</i>
   <i type="int" name="NKREDLFZ">     1</i>
   <i type="int" name="MAXMEM">  2800</i>
   <i type="int" name="TELESCOPE">     0</i>
   <i type="int" name="NTAUPAR">    -1</i>
   <i type="int" name="NOMEGAPAR">    -1</i>
   <i name="DAMP_NEWTON">      0.80000001</i>
   <i name="LAMBDA">      1.00000000</i>
  </separator>
  <separator name="External order field" >
   <i name="OFIELD_KAPPA">      0.00000000</i>
   <v name="OFIELD_K">      0.00000000      0.00000000      0.00000000</v>
   <i name="OFIELD_Q6_NEAR">      0.00000000</i>
   <i name="OFIELD_Q6_FAR">      0.00000000</i>
   <i name="OFIELD_A">      0.00000000</i>
  </separator>
  <separator name="optional k-points parameters" >
   <i type="int" name="KPOINTS_OPT_MODE">     1</i>
   <i type="logical" name="LKPOINTS_OPT"> F  </i>
  </separator>
 </parameters>
 <atominfo>
  <atoms>      24 </atoms>
  <types>       1 </types>
  <array name="atoms" >
   <dimension dim="1">ion</dimension>
   <field type="string">element</field>
   <field type="int">atomtype</field>
   <set>
    <rc><c>He</c><c>   1</c></rc>
    <rc><c>He</c><c>   1</c></rc>
    <rc><c>He</c><c>   1</c></rc>
    <rc><c>He</c><c>   1</c></rc>
    <rc><c>He</c><c>   1</c></rc>
    <rc><c>He</c><c>   1</c></rc>
    <rc><c>He</c><c>   1</c></rc>
    <rc><c>He</c><c>   1</c></rc>
    <rc><c>He</c><c>   1</c></rc>
    <rc><c>He</c><c>   1</c></rc>
    <rc><c>He</c><c>   1</c></rc>
    <rc><c>He</c><c>   1</c></rc>
    <rc><c>He</c><c>   1</c></rc>
    <rc><c>He</c><c>   1</c></rc>
    <rc><c>He</c><c>   1</c></rc>
    <rc><c>He</c><c>   1</c></rc>
    <rc><c>He</c><c>   1</c></rc>
    <rc><c>He</c><c>   1</c></rc>
    <rc><c>He</c><c>   1</c></rc>
    <rc><c>He</c><c>   1</c></rc>
    <rc><c>He</c><c>   1</c></rc>
    <rc><c>He</c><c>   1</c></rc>
    <rc><c>He</c><c>   1</c></rc>
    <rc><c>He</c><c>   1</c></rc>
   </set>
  </array>
  <array name="atomtypes" >
   <dimension dim="1">type</dimension>
   <field type="int">atomspertype</field>
   <field type="string">element</field>
   <field>mass</field>
   <field>valence</field>
   <field type="string">pseudopotential</field>
   <set>
    <rc><c>  24</c><c>He</c><c>      4.00000000</c><c>      2.00000000</c><c>  PAW_PBE He_GW 23Feb2015               </c></rc>
   </set>
  </array>
 </atominfo>
 <structure name="initialpos" >
  <crystal>
   <varray name="basis" >
    <v>       1.95429405       3.38493658       0.00000000 </v>
    <v>      -2.93144107       1.69246829       0.00000000 </v>
    <v>       0.00000000       0.00000000       9.56312345 </v>
   </varray>
   <i name="volume">    126.52321019 </i>
   <varray name="rec_basis" >
    <v>       0.12792343       0.22156988      -0.00000000 </v>
    <v>      -0.25584686       0.14771325       0.00000000 </v>
    <v>       0.00000000      -0.00000000       0.10456835 </v>
   </varray>
  </crystal>
  <varray name="positions" >
   <v>       0.25091984       0.16758651       0.08425317 </v>
   <v>       0.50000000       0.66666667       0.08333333 </v>
   <v>       0.75000000       0.16666667       0.08333333 </v>
   <v>       0.00000000       0.66666667       0.08333333 </v>
   <v>       0.25000000       0.16666667       0.41666667 </v>
   <v>       0.50000000       0.66666667       0.41666667 </v>
   <v>       0.75000000       0.16666667       0.41666667 </v>
   <v>       0.00000000       0.66666667       0.41666667 </v>
   <v>       0.25000000       0.16666667       0.75000000 </v>
   <v>       0.50000000       0.66666667       0.75000000 </v>
   <v>       0.75000000       0.16666667       0.75000000 </v>
   <v>       0.00000000       0.66666667       0.75000000 </v>
   <v>       0.25000000       0.83333333       0.25000000 </v>
   <v>       0.50000000       0.33333333       0.25000000 </v>
   <v>       0.75000000       0.83333333       0.25000000 </v>
   <v>       0.00000000       0.33333333       0.25000000 </v>
   <v>       0.25000000       0.83333333       0.58333333 </v>
   <v>       0.50000000       0.33333333       0.58333333 </v>
   <v>       0.75000000       0.83333333       0.58333333 </v>
   <v>       0.00000000       0.33333333       0.58333333 </v>
   <v>       0.25000000       0.83333333       0.91666667 </v>
   <v>       0.50000000       0.33333333       0.91666667 </v>
   <v>       0.75000000       0.83333333       0.91666667 </v>
   <v>       0.00000000       0.33333333       0.91666667 </v>
  </varray>
 </structure>
 <calculation>
  <scstep>
   <time name="dav">    2.67    2.67</time>
   <time name="total">    2.71    2.71</time>
   <energy>
    <i name="alphaZ">     46.16035745 </i>
    <i name="ewald">  -1147.00559571 </i>
    <i name="hartreedc">   -325.55678082 </i>
    <i name="XCdc">    188.77275196 </i>
    <i name="pawpsdc">   1096.62050802 </i>
    <i name="pawaedc">  -1132.77759231 </i>
    <i name="eentropy">     -0.00000852 </i>
    <i name="bandstr">   -326.67078083 </i>
    <i name="atom">   1889.38125292 </i>
    <i name="e_fr_energy">    288.92411214 </i>
    <i name="e_wo_entrp">    288.92412067 </i>
    <i name="e_0_energy">    288.92411641 </i>
   </energy>
  </scstep>
  <scstep>
   <time name="dav">    2.80    2.80</time>
   <time name="total">    2.80    2.80</time>
   <energy>
    <i name="e_fr_energy">     25.06823529 </i>
    <i name="e_wo_entrp">     25.06823529 </i>
    <i name="e_0_energy">     25.06823529 </i>
   </energy>
  </scstep>
  <scstep>
   <time name="dav">    3.06    3.06</time>
   <time name="total">    3.06    3.07</time>
   <energy>
    <i name="e_fr_energy">      8.36978672 </i>
    <i name="e_wo_entrp">      8.36978672 </i>
    <i name="e_0_energy">      8.36978672 </i>
   </energy>
  </scstep>
  <scstep>
   <time name="dav">    3.00    3.01</time>
   <time name="total">    3.01    3.01</time>
   <energy>
    <i name="e_fr_energy">      7.81315167 </i>
    <i name="e_wo_entrp">      7.81315167 </i>
    <i name="e_0_energy">      7.81315167 </i>
   </energy>
  </scstep>
  <scstep>
   <time name="dav">    2.94    2.94</time>
   <time name="total">    3.02    3.02</time>
   <energy>
    <i name="e_fr_energy">      7.79475406 </i>
    <i name="e_wo_entrp">      7.79475406 </i>
    <i name="e_0_energy">      7.79475406 </i>
   </energy>
  </scstep>
  <scstep>
   <time name="dav">    3.02    3.02</time>
   <time name="total">    3.13    3.13</time>
   <energy>
    <i name="e_fr_energy">      7.85452934 </i>
    <i name="e_wo_entrp">      7.85452934 </i>
    <i name="e_0_energy">      7.85452934 </i>
   </energy>
  </scstep>
  <scstep>
   <time name="dav">    2.89    2.89</time>
   <time name="total">    3.00    3.00</time>
   <energy>
    <i name="e_fr_energy">      7.86904456 </i>
    <i name="e_wo_entrp">      7.86904456 </i>
    <i name="e_0_energy">      7.86904456 </i>
   </energy>
  </scstep>
  <scstep>
   <time name="dav">    2.91    2.91</time>
   <time name="total">    3.02    3.02</time>
   <energy>
    <i name="e_fr_energy">      7.86809528 </i>
    <i name="e_wo_entrp">      7.86809528 </i>
    <i name="e_0_energy">      7.86809528 </i>
   </energy>
  </scstep>
  <scstep>
   <time name="dav">    2.76    2.76</time>
   <time name="total">    2.87    2.87</time>
   <energy>
    <i name="e_fr_energy">      7.86768812 </i>
    <i name="e_wo_entrp">      7.86768812 </i>
    <i name="e_0_energy">      7.86768812 </i>
   </energy>
  </scstep>
  <scstep>
   <time name="dav">    3.09    3.09</time>
   <time name="total">    3.20    3.20</time>
   <energy>
    <i name="e_fr_energy">      7.86768772 </i>
    <i name="e_wo_entrp">      7.86768772 </i>
    <i name="e_0_energy">      7.86768772 </i>
   </energy>
  </scstep>
  <scstep>
   <time name="dav">    2.74    2.74</time>
   <time name="total">    2.84    2.85</time>
   <energy>
    <i name="e_fr_energy">      7.86768736 </i>
    <i name="e_wo_entrp">      7.86768736 </i>
    <i name="e_0_energy">      7.86768736 </i>
   </energy>
  </scstep>
  <scstep>
   <time name="dav">    2.38    2.38</time>
   <time name="total">    2.49    2.49</time>
   <energy>
    <i name="e_fr_energy">      7.86768761 </i>
    <i name="e_wo_entrp">      7.86768761 </i>
    <i name="e_0_energy">      7.86768761 </i>
   </energy>
  </scstep>
  <scstep>
   <time name="dav">    2.15    2.15</time>
   <time name="total">    2.18    2.18</time>
   <energy>
    <i name="alphaZ">     46.16035745 </i>
    <i name="ewald">  -1147.00559571 </i>
    <i name="hartreedc">   -338.64225457 </i>
    <i name="XCdc">    190.97733804 </i>
    <i name="pawpsdc">   1147.02935371 </i>
    <i name="pawaedc">  -1184.55680998 </i>
    <i name="eentropy">     -0.00000000 </i>
    <i name="bandstr">   -595.47595427 </i>
    <i name="atom">   1889.38125292 </i>
    <i name="e_fr_energy">      7.86768759 </i>
    <i name="e_wo_entrp">      7.86768759 </i>
    <i name="e_0_energy">      7.86768759 </i>
   </energy>
  </scstep>
  <structure>
   <crystal>
    <varray name="basis" >
     <v>       1.95429405       3.38493658       0.00000000 </v>
     <v>      -2.93144107       1.69246829       0.00000000 </v>
     <v>       0.00000000       0.00000000       9.56312345 </v>
    </varray>
    <i name="volume">    126.52321019 </i>
    <varray name="rec_basis" >
     <v>       0.12792343       0.22156988      -0.00000000 </v>
     <v>      -0.25584686       0.14771325       0.00000000 </v>
     <v>       0.00000000      -0.00000000       0.10456835 </v>
    </varray>
   </crystal>
   <varray name="positions" >
    <v>       0.25091984       0.16758651       0.08425317 </v>
    <v>       0.50000000       0.66666667       0.08333333 </v>
    <v>       0.75000000       0.16666667       0.08333333 </v>
    <v>       0.00000000       0.66666667       0.08333333 </v>
    <v>       0.25000000       0.16666667       0.41666667 </v>
    <v>       0.50000000       0.66666667       0.41666667 </v>
    <v>       0.75000000       0.16666667       0.41666667 </v>
    <v>       0.00000000       0.66666667       0.41666667 </v>
    <v>       0.25000000       0.16666667       0.75000000 </v>
    <v>       0.50000000       0.66666667       0.75000000 </v>
    <v>       0.75000000       0.16666667       0.75000000 </v>
    <v>       0.00000000       0.66666667       0.75000000 </v>
    <v>       0.25000000       0.83333333       0.25000000 </v>
    <v>       0.50000000       0.33333333       0.25000000 </v>
    <v>       0.75000000       0.83333333       0.25000000 </v>
    <v>       0.00000000       0.33333333       0.25000000 </v>
    <v>       0.25000000       0.83333333       0.58333333 </v>
    <v>       0.50000000       0.33333333       0.58333333 </v>
    <v>       0.75000000       0.83333333       0.58333333 </v>
    <v>       0.00000000       0.33333333       0.58333333 </v>
    <v>       0.25000000       0.83333333       0.91666667 </v>
    <v>       0.50000000       0.33333333       0.91666667 </v>
    <v>       0.75000000       0.83333333       0.91666667 </v>
    <v>       0.00000000       0.33333333       0.91666667 </v>
   </varray>
  </structure>
  <varray name="forces" >
   <v>       0.00310109      -0.01639644      -0.03071335 </v>
   <v>      -0.00282452       0.00362658      -0.00123863 </v>
   <v>       0.00381230       0.00589391      -0.00122367 </v>
   <v>      -0.00342385       0.00345941      -0.00121237 </v>
   <v>       0.00000006      -0.00000662       0.00019726 </v>
   <v>      -0.00000593       0.00000341       0.00000535 </v>
   <v>       0.00000775      -0.00000005       0.00001304 </v>
   <v>      -0.00000358       0.00000258       0.00000433 </v>
   <v>       0.00000341      -0.00000814       0.00019393 </v>
   <v>      -0.00000125      -0.00000093       0.00000585 </v>
   <v>      -0.00000630       0.00000763       0.00000638 </v>
   <v>       0.00000226       0.00000085       0.00000625 </v>
   <v>       0.00274178      -0.00193105       0.00414692 </v>
   <v>       0.00009006       0.00579345       0.00809007 </v>
   <v>      -0.00005529       0.00007701       0.00005034 </v>
   <v>      -0.00311695      -0.00216581       0.00495900 </v>
   <v>      -0.00000158       0.00000112      -0.00000174 </v>
   <v>      -0.00000157       0.00000090      -0.00000486 </v>
   <v>      -0.00000120       0.00000060      -0.00000526 </v>
   <v>      -0.00000164       0.00000103      -0.00000494 </v>
   <v>      -0.00454311       0.00230153       0.00698754 </v>
   <v>       0.00005384      -0.00276886       0.00341717 </v>
   <v>       0.00004036       0.00002127       0.00001167 </v>
   <v>       0.00413386       0.00208664       0.00630973 </v>
  </varray>
  <varray name="stress" >
   <v>     276.93506064      -0.01770044      -0.00018113 </v>
   <v>      -0.01770038     276.98966232       0.00100555 </v>
   <v>      -0.00018114       0.00100559     276.55048307 </v>
  </varray>
  <energy>
   <i name="e_fr_energy">      7.27439904 </i>
   <i name="e_wo_entrp">      7.27439904 </i>
   <i name="e_0_energy">      7.27439904 </i>
  </energy>
  <time name="totalsc">   41.60   41.64</time>
  <eigenvalues>
   <array>
    <dimension dim="1">band</dimension>
    <dimension dim="2">kpoint</dimension>
    <dimension dim="3">spin</dimension>
    <field>eigene</field>
    <field>occ</field>
    <set>
     <set comment="spin 1">
      <set comment="kpoint 1">
       <r>  -17.9202    1.0000 </r>
       <r>  -16.8063    1.0000 </r>
       <r>  -16.8002    1.0000 </r>
       <r>  -14.0041    1.0000 </r>
       <r>  -13.9969    1.0000 </r>
       <r>  -12.5155    1.0000 </r>
       <r>  -12.5124    1.0000 </r>
       <r>  -12.1791    1.0000 </r>
       <r>  -12.0801    1.0000 </r>
       <r>  -11.9404    1.0000 </r>
       <r>  -11.9371    1.0000 </r>
       <r>  -11.9366    1.0000 </r>
       <r>  -11.9327    1.0000 </r>
       <r>  -11.7169    1.0000 </r>
       <r>  -11.7139    1.0000 </r>
       <r>  -10.8581    1.0000 </r>
       <r>  -10.8560    1.0000 </r>
       <r>  -10.7705    1.0000 </r>
       <r>  -10.7676    1.0000 </r>
       <r>  -10.7674    1.0000 </r>
       <r>  -10.7648    1.0000 </r>
       <r>  -10.4890    1.0000 </r>
       <r>  -10.1922    1.0000 </r>
       <r>  -10.1916    1.0000 </r>
       <r>    8.1285    0.0000 </r>
       <r>    9.2499    0.0000 </r>
       <r>    9.2519    0.0000 </r>
       <r>    9.4182    0.0000 </r>
       <r>   11.5332    0.0000 </r>
       <r>   11.5373    0.0000 </r>
       <r>   11.5893    0.0000 </r>
       <r>   11.5957    0.0000 </r>
       <r>   11.6618    0.0000 </r>
       <r>   11.6767    0.0000 </r>
       <r>   11.8406    0.0000 </r>
       <r>   11.8462    0.0000 </r>
       <r>   11.8476    0.0000 </r>
       <r>   11.8553    0.0000 </r>
       <r>   12.6859    0.0000 </r>
       <r>   12.6905    0.0000 </r>
      </set>
      <set comment="kpoint 2">
       <r>  -17.8633    1.0000 </r>
       <r>  -16.7524    1.0000 </r>
       <r>  -16.7462    1.0000 </r>
       <r>  -13.9599    1.0000 </r>
       <r>  -13.9528    1.0000 </r>
       <r>  -13.2035    1.0000 </r>
       <r>  -12.5098    1.0000 </r>
       <r>  -12.5058    1.0000 </r>
       <r>  -12.1445    1.0000 </r>
       <r>  -12.0465    1.0000 </r>
       <r>  -11.8918    1.0000 </r>
       <r>  -11.6881    1.0000 </r>
       <r>  -11.6851    1.0000 </r>
       <r>  -11.4493    1.0000 </r>
       <r>  -11.4467    1.0000 </r>
       <r>  -11.0208    1.0000 </r>
       <r>  -11.0173    1.0000 </r>
       <r>  -10.8420    1.0000 </r>
       <r>  -10.8399    1.0000 </r>
       <r>  -10.6164    1.0000 </r>
       <r>  -10.6147    1.0000 </r>
       <r>  -10.4796    1.0000 </r>
       <r>  -10.2453    1.0000 </r>
       <r>  -10.2298    1.0000 </r>
       <r>    8.2091    0.0000 </r>
       <r>    9.3287    0.0000 </r>
       <r>    9.3306    0.0000 </r>
       <r>    9.4780    0.0000 </r>
       <r>   11.2431    0.0000 </r>
       <r>   11.6082    0.0000 </r>
       <r>   11.6124    0.0000 </r>
       <r>   11.6999    0.0000 </r>
       <r>   11.7148    0.0000 </r>
       <r>   11.8109    0.0000 </r>
       <r>   11.8123    0.0000 </r>
       <r>   12.1539    0.0000 </r>
       <r>   12.1577    0.0000 </r>
       <r>   12.1702    0.0000 </r>
       <r>   12.5514    0.0000 </r>
       <r>   12.5567    0.0000 </r>
      </set>
      <set comment="kpoint 3">
       <r>  -17.6937    1.0000 </r>
       <r>  -16.5915    1.0000 </r>
       <r>  -16.5854    1.0000 </r>
       <r>  -13.9261    1.0000 </r>
       <r>  -13.8290    1.0000 </r>
       <r>  -13.8220    1.0000 </r>
       <r>  -13.1321    1.0000 </r>
       <r>  -13.1275    1.0000 </r>
       <r>  -12.0426    1.0000 </r>
       <r>  -11.9471    1.0000 </r>
       <r>  -11.6035    1.0000 </r>
       <r>  -11.6007    1.0000 </r>
       <r>  -11.3677    1.0000 </r>
       <r>  -11.3551    1.0000 </r>
       <r>  -11.3508    1.0000 </r>
       <r>  -11.0666    1.0000 </r>
       <r>  -11.0648    1.0000 </r>
       <r>  -10.7969    1.0000 </r>
       <r>  -10.7949    1.0000 </r>
       <r>  -10.5678    1.0000 </r>
       <r>  -10.5669    1.0000 </r>
       <r>  -10.4550    1.0000 </r>
       <r>  -10.3842    1.0000 </r>
       <r>  -10.3537    1.0000 </r>
       <r>    8.4510    0.0000 </r>
       <r>    9.5645    0.0000 </r>
       <r>    9.5665    0.0000 </r>
       <r>    9.6537    0.0000 </r>
       <r>   11.1140    0.0000 </r>
       <r>   11.8105    0.0000 </r>
       <r>   11.8239    0.0000 </r>
       <r>   11.8319    0.0000 </r>
       <r>   11.8379    0.0000 </r>
       <r>   12.0705    0.0000 </r>
       <r>   12.0718    0.0000 </r>
       <r>   12.5507    0.0000 </r>
       <r>   12.5581    0.0000 </r>
       <r>   12.6851    0.0000 </r>
       <r>   12.6905    0.0000 </r>
       <r>   12.9469    0.0000 </r>
      </set>
      <set comment="kpoint 4">
       <r>  -17.4142    1.0000 </r>
       <r>  -16.3270    1.0000 </r>
       <r>  -16.3210    1.0000 </r>
       <r>  -14.6482    1.0000 </r>
       <r>  -13.7721    1.0000 </r>
       <r>  -13.7671    1.0000 </r>
       <r>  -13.6162    1.0000 </r>
       <r>  -13.6093    1.0000 </r>
       <r>  -11.8788    1.0000 </r>
       <r>  -11.7876    1.0000 </r>
       <r>  -11.7468    1.0000 </r>
       <r>  -11.7418    1.0000 </r>
       <r>  -11.4698    1.0000 </r>
       <r>  -11.4672    1.0000 </r>
       <r>  -10.9609    1.0000 </r>
       <r>  -10.8015    1.0000 </r>
       <r>  -10.8003    1.0000 </r>
       <r>  -10.7316    1.0000 </r>
       <r>  -10.7298    1.0000 </r>
       <r>  -10.6144    1.0000 </r>
       <r>  -10.6139    1.0000 </r>
       <r>  -10.5928    1.0000 </r>
       <r>  -10.5484    1.0000 </r>
       <r>  -10.4256    1.0000 </r>
       <r>    8.8541    0.0000 </r>
       <r>    9.9330    0.0000 </r>
       <r>    9.9563    0.0000 </r>
       <r>    9.9581    0.0000 </r>
       <r>   11.1331    0.0000 </r>
       <r>   11.9799    0.0000 </r>
       <r>   11.9944    0.0000 </r>
       <r>   12.1993    0.0000 </r>
       <r>   12.2038    0.0000 </r>
       <r>   12.5618    0.0000 </r>
       <r>   12.5649    0.0000 </r>
       <r>   12.5985    0.0000 </r>
       <r>   12.6080    0.0000 </r>
       <r>   13.2765    0.0000 </r>
       <r>   13.3766    0.0000 </r>
       <r>   13.3835    0.0000 </r>
      </set>
      <set comment="kpoint 5">
       <r>  -17.0299    1.0000 </r>
       <r>  -15.9650    1.0000 </r>
       <r>  -15.9591    1.0000 </r>
       <r>  -15.3411    1.0000 </r>
       <r>  -14.3989    1.0000 </r>
       <r>  -14.3936    1.0000 </r>
       <r>  -13.3295    1.0000 </r>
       <r>  -13.3228    1.0000 </r>
       <r>  -12.1666    1.0000 </r>
       <r>  -12.1610    1.0000 </r>
       <r>  -11.6623    1.0000 </r>
       <r>  -11.5770    1.0000 </r>
       <r>  -11.2982    1.0000 </r>
       <r>  -11.2958    1.0000 </r>
       <r>  -10.8490    1.0000 </r>
       <r>  -10.7919    1.0000 </r>
       <r>  -10.7368    1.0000 </r>
       <r>  -10.7358    1.0000 </r>
       <r>  -10.6776    1.0000 </r>
       <r>  -10.6612    1.0000 </r>
       <r>  -10.6598    1.0000 </r>
       <r>  -10.6496    1.0000 </r>
       <r>  -10.6488    1.0000 </r>
       <r>  -10.4083    1.0000 </r>
       <r>    9.4181    0.0000 </r>
       <r>   10.2903    0.0000 </r>
       <r>   10.5002    0.0000 </r>
       <r>   10.5022    0.0000 </r>
       <r>   11.1448    0.0000 </r>
       <r>   12.0726    0.0000 </r>
       <r>   12.1828    0.0000 </r>
       <r>   12.1971    0.0000 </r>
       <r>   12.6095    0.0000 </r>
       <r>   12.6208    0.0000 </r>
       <r>   12.6994    0.0000 </r>
       <r>   12.7030    0.0000 </r>
       <r>   12.7050    0.0000 </r>
       <r>   12.7088    0.0000 </r>
       <r>   14.1594    0.0000 </r>
       <r>   14.1795    0.0000 </r>
      </set>
      <set comment="kpoint 6">
       <r>  -16.5485    1.0000 </r>
       <r>  -15.9809    1.0000 </r>
       <r>  -15.5141    1.0000 </r>
       <r>  -15.5083    1.0000 </r>
       <r>  -14.9866    1.0000 </r>
       <r>  -14.9810    1.0000 </r>
       <r>  -12.9809    1.0000 </r>
       <r>  -12.9744    1.0000 </r>
       <r>  -12.5863    1.0000 </r>
       <r>  -12.5802    1.0000 </r>
       <r>  -11.4063    1.0000 </r>
       <r>  -11.3286    1.0000 </r>
       <r>  -11.1282    1.0000 </r>
       <r>  -11.1043    1.0000 </r>
       <r>  -11.1024    1.0000 </r>
       <r>  -11.0599    1.0000 </r>
       <r>  -10.9090    1.0000 </r>
       <r>  -10.9075    1.0000 </r>
       <r>  -10.6065    1.0000 </r>
       <r>  -10.6055    1.0000 </r>
       <r>  -10.5933    1.0000 </r>
       <r>  -10.5924    1.0000 </r>
       <r>  -10.5068    1.0000 </r>
       <r>  -10.4263    1.0000 </r>
       <r>   10.1430    0.0000 </r>
       <r>   10.6738    0.0000 </r>
       <r>   10.9931    0.0000 </r>
       <r>   11.0281    0.0000 </r>
       <r>   11.1881    0.0000 </r>
       <r>   11.1902    0.0000 </r>
       <r>   11.9881    0.0000 </r>
       <r>   11.9906    0.0000 </r>
       <r>   12.3826    0.0000 </r>
       <r>   12.3964    0.0000 </r>
       <r>   12.5375    0.0000 </r>
       <r>   12.5504    0.0000 </r>
       <r>   13.3047    0.0000 </r>
       <r>   13.3088    0.0000 </r>
       <r>   13.9323    0.0000 </r>
       <r>   13.9360    0.0000 </r>
      </set>
      <set comment="kpoint 7">
       <r>  -17.8565    1.0000 </r>
       <r>  -16.7459    1.0000 </r>
       <r>  -16.7398    1.0000 </r>
       <r>  -13.9546    1.0000 </r>
       <r>  -13.9475    1.0000 </r>
       <r>  -12.4960    1.0000 </r>
       <r>  -12.4930    1.0000 </r>
       <r>  -12.3912    1.0000 </r>
       <r>  -12.0424    1.0000 </r>
       <r>  -11.9272    1.0000 </r>
       <r>  -11.9238    1.0000 </r>
       <r>  -11.9233    1.0000 </r>
       <r>  -11.9195    1.0000 </r>
       <r>  -11.8767    1.0000 </r>
       <r>  -11.8735    1.0000 </r>
       <r>  -10.8848    1.0000 </r>
       <r>  -10.8824    1.0000 </r>
       <r>  -10.7749    1.0000 </r>
       <r>  -10.7720    1.0000 </r>
       <r>  -10.7718    1.0000 </r>
       <r>  -10.7693    1.0000 </r>
       <r>  -10.4340    1.0000 </r>
       <r>  -10.2091    1.0000 </r>
       <r>  -10.2084    1.0000 </r>
       <r>    8.2188    0.0000 </r>
       <r>    9.4288    0.0000 </r>
       <r>    9.4312    0.0000 </r>
       <r>    9.6265    0.0000 </r>
       <r>   11.3660    0.0000 </r>
       <r>   11.3721    0.0000 </r>
       <r>   11.4932    0.0000 </r>
       <r>   11.4988    0.0000 </r>
       <r>   11.5005    0.0000 </r>
       <r>   11.5067    0.0000 </r>
       <r>   11.6522    0.0000 </r>
       <r>   11.6566    0.0000 </r>
       <r>   11.7052    0.0000 </r>
       <r>   11.7203    0.0000 </r>
       <r>   12.7220    0.0000 </r>
       <r>   12.7295    0.0000 </r>
      </set>
      <set comment="kpoint 8">
       <r>  -17.7998    1.0000 </r>
       <r>  -16.6921    1.0000 </r>
       <r>  -16.6860    1.0000 </r>
       <r>  -13.9108    1.0000 </r>
       <r>  -13.9037    1.0000 </r>
       <r>  -13.1714    1.0000 </r>
       <r>  -12.4843    1.0000 </r>
       <r>  -12.4804    1.0000 </r>
       <r>  -12.3559    1.0000 </r>
       <r>  -12.0090    1.0000 </r>
       <r>  -11.8919    1.0000 </r>
       <r>  -11.8471    1.0000 </r>
       <r>  -11.8439    1.0000 </r>
       <r>  -11.4528    1.0000 </r>
       <r>  -11.4502    1.0000 </r>
       <r>  -11.0146    1.0000 </r>
       <r>  -11.0111    1.0000 </r>
       <r>  -10.8678    1.0000 </r>
       <r>  -10.8655    1.0000 </r>
       <r>  -10.6300    1.0000 </r>
       <r>  -10.6282    1.0000 </r>
       <r>  -10.4241    1.0000 </r>
       <r>  -10.2659    1.0000 </r>
       <r>  -10.2380    1.0000 </r>
       <r>    8.2994    0.0000 </r>
       <r>    9.5054    0.0000 </r>
       <r>    9.5078    0.0000 </r>
       <r>    9.6846    0.0000 </r>
       <r>   11.0413    0.0000 </r>
       <r>   11.4509    0.0000 </r>
       <r>   11.4538    0.0000 </r>
       <r>   11.7207    0.0000 </r>
       <r>   11.7245    0.0000 </r>
       <r>   11.7419    0.0000 </r>
       <r>   11.7564    0.0000 </r>
       <r>   11.7780    0.0000 </r>
       <r>   11.7834    0.0000 </r>
       <r>   11.9353    0.0000 </r>
       <r>   12.6606    0.0000 </r>
       <r>   12.6662    0.0000 </r>
      </set>
      <set comment="kpoint 9">
       <r>  -17.7998    1.0000 </r>
       <r>  -16.6921    1.0000 </r>
       <r>  -16.6860    1.0000 </r>
       <r>  -13.9108    1.0000 </r>
       <r>  -13.9037    1.0000 </r>
       <r>  -13.1712    1.0000 </r>
       <r>  -12.4842    1.0000 </r>
       <r>  -12.4803    1.0000 </r>
       <r>  -12.3559    1.0000 </r>
       <r>  -12.0090    1.0000 </r>
       <r>  -11.8923    1.0000 </r>
       <r>  -11.8470    1.0000 </r>
       <r>  -11.8439    1.0000 </r>
       <r>  -11.4531    1.0000 </r>
       <r>  -11.4505    1.0000 </r>
       <r>  -11.0147    1.0000 </r>
       <r>  -11.0113    1.0000 </r>
       <r>  -10.8678    1.0000 </r>
       <r>  -10.8655    1.0000 </r>
       <r>  -10.6297    1.0000 </r>
       <r>  -10.6280    1.0000 </r>
       <r>  -10.4241    1.0000 </r>
       <r>  -10.2653    1.0000 </r>
       <r>  -10.2383    1.0000 </r>
       <r>    8.2994    0.0000 </r>
       <r>    9.5054    0.0000 </r>
       <r>    9.5078    0.0000 </r>
       <r>    9.6847    0.0000 </r>
       <r>   11.0393    0.0000 </r>
       <r>   11.4504    0.0000 </r>
       <r>   11.4521    0.0000 </r>
       <r>   11.7206    0.0000 </r>
       <r>   11.7243    0.0000 </r>
       <r>   11.7421    0.0000 </r>
       <r>   11.7561    0.0000 </r>
       <r>   11.7788    0.0000 </r>
       <r>   11.7850    0.0000 </r>
       <r>   11.9374    0.0000 </r>
       <r>   12.6591    0.0000 </r>
       <r>   12.6649    0.0000 </r>
      </set>
      <set comment="kpoint 10">
       <r>  -17.6307    1.0000 </r>
       <r>  -16.5318    1.0000 </r>
       <r>  -16.5257    1.0000 </r>
       <r>  -13.8851    1.0000 </r>
       <r>  -13.7808    1.0000 </r>
       <r>  -13.7738    1.0000 </r>
       <r>  -13.0972    1.0000 </r>
       <r>  -13.0927    1.0000 </r>
       <r>  -12.2522    1.0000 </r>
       <r>  -11.9107    1.0000 </r>
       <r>  -11.7601    1.0000 </r>
       <r>  -11.7571    1.0000 </r>
       <r>  -11.4051    1.0000 </r>
       <r>  -11.3391    1.0000 </r>
       <r>  -11.3348    1.0000 </r>
       <r>  -11.0969    1.0000 </r>
       <r>  -11.0949    1.0000 </r>
       <r>  -10.8201    1.0000 </r>
       <r>  -10.8178    1.0000 </r>
       <r>  -10.5824    1.0000 </r>
       <r>  -10.5813    1.0000 </r>
       <r>  -10.3978    1.0000 </r>
       <r>  -10.3913    1.0000 </r>
       <r>  -10.3525    1.0000 </r>
       <r>    8.5413    0.0000 </r>
       <r>    9.7343    0.0000 </r>
       <r>    9.7367    0.0000 </r>
       <r>    9.8550    0.0000 </r>
       <r>   10.9446    0.0000 </r>
       <r>   11.6610    0.0000 </r>
       <r>   11.6637    0.0000 </r>
       <r>   11.8501    0.0000 </r>
       <r>   11.8647    0.0000 </r>
       <r>   11.9249    0.0000 </r>
       <r>   11.9298    0.0000 </r>
       <r>   12.1710    0.0000 </r>
       <r>   12.1779    0.0000 </r>
       <r>   12.7123    0.0000 </r>
       <r>   12.8371    0.0000 </r>
       <r>   12.8442    0.0000 </r>
      </set>
      <set comment="kpoint 11">
       <r>  -17.6307    1.0000 </r>
       <r>  -16.5318    1.0000 </r>
       <r>  -16.5257    1.0000 </r>
       <r>  -13.8849    1.0000 </r>
       <r>  -13.7808    1.0000 </r>
       <r>  -13.7738    1.0000 </r>
       <r>  -13.0971    1.0000 </r>
       <r>  -13.0926    1.0000 </r>
       <r>  -12.2521    1.0000 </r>
       <r>  -11.9107    1.0000 </r>
       <r>  -11.7600    1.0000 </r>
       <r>  -11.7570    1.0000 </r>
       <r>  -11.4059    1.0000 </r>
       <r>  -11.3391    1.0000 </r>
       <r>  -11.3349    1.0000 </r>
       <r>  -11.0972    1.0000 </r>
       <r>  -11.0953    1.0000 </r>
       <r>  -10.8201    1.0000 </r>
       <r>  -10.8179    1.0000 </r>
       <r>  -10.5819    1.0000 </r>
       <r>  -10.5810    1.0000 </r>
       <r>  -10.3979    1.0000 </r>
       <r>  -10.3904    1.0000 </r>
       <r>  -10.3527    1.0000 </r>
       <r>    8.5413    0.0000 </r>
       <r>    9.7343    0.0000 </r>
       <r>    9.7367    0.0000 </r>
       <r>    9.8551    0.0000 </r>
       <r>   10.9427    0.0000 </r>
       <r>   11.6605    0.0000 </r>
       <r>   11.6619    0.0000 </r>
       <r>   11.8502    0.0000 </r>
       <r>   11.8646    0.0000 </r>
       <r>   11.9249    0.0000 </r>
       <r>   11.9297    0.0000 </r>
       <r>   12.1718    0.0000 </r>
       <r>   12.1787    0.0000 </r>
       <r>   12.7143    0.0000 </r>
       <r>   12.8362    0.0000 </r>
       <r>   12.8433    0.0000 </r>
      </set>
      <set comment="kpoint 12">
       <r>  -17.3521    1.0000 </r>
       <r>  -16.2685    1.0000 </r>
       <r>  -16.2625    1.0000 </r>
       <r>  -14.6007    1.0000 </r>
       <r>  -13.7300    1.0000 </r>
       <r>  -13.7251    1.0000 </r>
       <r>  -13.5695    1.0000 </r>
       <r>  -13.5626    1.0000 </r>
       <r>  -12.0858    1.0000 </r>
       <r>  -11.7530    1.0000 </r>
       <r>  -11.7221    1.0000 </r>
       <r>  -11.7172    1.0000 </r>
       <r>  -11.6225    1.0000 </r>
       <r>  -11.6196    1.0000 </r>
       <r>  -11.1036    1.0000 </r>
       <r>  -10.8930    1.0000 </r>
       <r>  -10.8914    1.0000 </r>
       <r>  -10.7501    1.0000 </r>
       <r>  -10.7480    1.0000 </r>
       <r>  -10.5958    1.0000 </r>
       <r>  -10.5948    1.0000 </r>
       <r>  -10.5384    1.0000 </r>
       <r>  -10.5186    1.0000 </r>
       <r>  -10.3647    1.0000 </r>
       <r>    8.9444    0.0000 </r>
       <r>   10.1118    0.0000 </r>
       <r>   10.1146    0.0000 </r>
       <r>   10.1235    0.0000 </r>
       <r>   11.0156    0.0000 </r>
       <r>   12.0139    0.0000 </r>
       <r>   12.0282    0.0000 </r>
       <r>   12.0582    0.0000 </r>
       <r>   12.0613    0.0000 </r>
       <r>   12.2542    0.0000 </r>
       <r>   12.2586    0.0000 </r>
       <r>   12.4482    0.0000 </r>
       <r>   12.4575    0.0000 </r>
       <r>   13.3383    0.0000 </r>
       <r>   13.3455    0.0000 </r>
       <r>   13.3676    0.0000 </r>
      </set>
      <set comment="kpoint 13">
       <r>  -17.3521    1.0000 </r>
       <r>  -16.2685    1.0000 </r>
       <r>  -16.2625    1.0000 </r>
       <r>  -14.6006    1.0000 </r>
       <r>  -13.7300    1.0000 </r>
       <r>  -13.7251    1.0000 </r>
       <r>  -13.5694    1.0000 </r>
       <r>  -13.5626    1.0000 </r>
       <r>  -12.0857    1.0000 </r>
       <r>  -11.7530    1.0000 </r>
       <r>  -11.7222    1.0000 </r>
       <r>  -11.7172    1.0000 </r>
       <r>  -11.6224    1.0000 </r>
       <r>  -11.6195    1.0000 </r>
       <r>  -11.1048    1.0000 </r>
       <r>  -10.8935    1.0000 </r>
       <r>  -10.8922    1.0000 </r>
       <r>  -10.7501    1.0000 </r>
       <r>  -10.7481    1.0000 </r>
       <r>  -10.5948    1.0000 </r>
       <r>  -10.5944    1.0000 </r>
       <r>  -10.5385    1.0000 </r>
       <r>  -10.5173    1.0000 </r>
       <r>  -10.3649    1.0000 </r>
       <r>    8.9444    0.0000 </r>
       <r>   10.1119    0.0000 </r>
       <r>   10.1146    0.0000 </r>
       <r>   10.1236    0.0000 </r>
       <r>   11.0138    0.0000 </r>
       <r>   12.0140    0.0000 </r>
       <r>   12.0286    0.0000 </r>
       <r>   12.0572    0.0000 </r>
       <r>   12.0596    0.0000 </r>
       <r>   12.2542    0.0000 </r>
       <r>   12.2586    0.0000 </r>
       <r>   12.4484    0.0000 </r>
       <r>   12.4575    0.0000 </r>
       <r>   13.3382    0.0000 </r>
       <r>   13.3454    0.0000 </r>
       <r>   13.3676    0.0000 </r>
      </set>
      <set comment="kpoint 14">
       <r>  -16.9693    1.0000 </r>
       <r>  -15.9080    1.0000 </r>
       <r>  -15.9022    1.0000 </r>
       <r>  -15.2888    1.0000 </r>
       <r>  -14.3514    1.0000 </r>
       <r>  -14.3462    1.0000 </r>
       <r>  -13.2851    1.0000 </r>
       <r>  -13.2784    1.0000 </r>
       <r>  -12.1350    1.0000 </r>
       <r>  -12.1294    1.0000 </r>
       <r>  -11.8670    1.0000 </r>
       <r>  -11.5450    1.0000 </r>
       <r>  -11.4460    1.0000 </r>
       <r>  -11.4434    1.0000 </r>
       <r>  -11.1198    1.0000 </r>
       <r>  -10.9008    1.0000 </r>
       <r>  -10.8993    1.0000 </r>
       <r>  -10.7744    1.0000 </r>
       <r>  -10.6721    1.0000 </r>
       <r>  -10.6704    1.0000 </r>
       <r>  -10.5844    1.0000 </r>
       <r>  -10.5839    1.0000 </r>
       <r>  -10.4972    1.0000 </r>
       <r>  -10.3407    1.0000 </r>
       <r>    9.5084    0.0000 </r>
       <r>   10.4582    0.0000 </r>
       <r>   10.6307    0.0000 </r>
       <r>   10.6330    0.0000 </r>
       <r>   11.1074    0.0000 </r>
       <r>   12.1620    0.0000 </r>
       <r>   12.2083    0.0000 </r>
       <r>   12.2225    0.0000 </r>
       <r>   12.3117    0.0000 </r>
       <r>   12.3141    0.0000 </r>
       <r>   12.5509    0.0000 </r>
       <r>   12.5620    0.0000 </r>
       <r>   12.6865    0.0000 </r>
       <r>   12.6907    0.0000 </r>
       <r>   13.8811    0.0000 </r>
       <r>   13.8819    0.0000 </r>
      </set>
      <set comment="kpoint 15">
       <r>  -16.9693    1.0000 </r>
       <r>  -15.9081    1.0000 </r>
       <r>  -15.9022    1.0000 </r>
       <r>  -15.2887    1.0000 </r>
       <r>  -14.3514    1.0000 </r>
       <r>  -14.3461    1.0000 </r>
       <r>  -13.2851    1.0000 </r>
       <r>  -13.2784    1.0000 </r>
       <r>  -12.1351    1.0000 </r>
       <r>  -12.1295    1.0000 </r>
       <r>  -11.8668    1.0000 </r>
       <r>  -11.5449    1.0000 </r>
       <r>  -11.4458    1.0000 </r>
       <r>  -11.4433    1.0000 </r>
       <r>  -11.1208    1.0000 </r>
       <r>  -10.9014    1.0000 </r>
       <r>  -10.8998    1.0000 </r>
       <r>  -10.7745    1.0000 </r>
       <r>  -10.6722    1.0000 </r>
       <r>  -10.6706    1.0000 </r>
       <r>  -10.5840    1.0000 </r>
       <r>  -10.5832    1.0000 </r>
       <r>  -10.4960    1.0000 </r>
       <r>  -10.3409    1.0000 </r>
       <r>    9.5084    0.0000 </r>
       <r>   10.4585    0.0000 </r>
       <r>   10.6307    0.0000 </r>
       <r>   10.6330    0.0000 </r>
       <r>   11.1060    0.0000 </r>
       <r>   12.1620    0.0000 </r>
       <r>   12.2085    0.0000 </r>
       <r>   12.2227    0.0000 </r>
       <r>   12.3109    0.0000 </r>
       <r>   12.3132    0.0000 </r>
       <r>   12.5507    0.0000 </r>
       <r>   12.5618    0.0000 </r>
       <r>   12.6864    0.0000 </r>
       <r>   12.6909    0.0000 </r>
       <r>   13.8820    0.0000 </r>
       <r>   13.8845    0.0000 </r>
      </set>
      <set comment="kpoint 16">
       <r>  -16.4899    1.0000 </r>
       <r>  -15.9249    1.0000 </r>
       <r>  -15.4594    1.0000 </r>
       <r>  -15.4537    1.0000 </r>
       <r>  -14.9350    1.0000 </r>
       <r>  -14.9295    1.0000 </r>
       <r>  -12.9396    1.0000 </r>
       <r>  -12.9332    1.0000 </r>
       <r>  -12.5492    1.0000 </r>
       <r>  -12.5431    1.0000 </r>
       <r>  -11.6116    1.0000 </r>
       <r>  -11.3443    1.0000 </r>
       <r>  -11.3003    1.0000 </r>
       <r>  -11.2477    1.0000 </r>
       <r>  -11.2454    1.0000 </r>
       <r>  -11.0519    1.0000 </r>
       <r>  -11.0502    1.0000 </r>
       <r>  -11.0363    1.0000 </r>
       <r>  -10.6058    1.0000 </r>
       <r>  -10.6043    1.0000 </r>
       <r>  -10.5727    1.0000 </r>
       <r>  -10.5720    1.0000 </r>
       <r>  -10.4000    1.0000 </r>
       <r>  -10.3458    1.0000 </r>
       <r>   10.2331    0.0000 </r>
       <r>   10.8000    0.0000 </r>
       <r>   11.0487    0.0000 </r>
       <r>   11.1182    0.0000 </r>
       <r>   11.2664    0.0000 </r>
       <r>   11.2687    0.0000 </r>
       <r>   11.9369    0.0000 </r>
       <r>   11.9384    0.0000 </r>
       <r>   12.3930    0.0000 </r>
       <r>   12.4067    0.0000 </r>
       <r>   12.5231    0.0000 </r>
       <r>   12.5358    0.0000 </r>
       <r>   13.1678    0.0000 </r>
       <r>   13.1713    0.0000 </r>
       <r>   13.5809    0.0000 </r>
       <r>   13.5833    0.0000 </r>
      </set>
      <set comment="kpoint 17">
       <r>  -16.4900    1.0000 </r>
       <r>  -15.9249    1.0000 </r>
       <r>  -15.4594    1.0000 </r>
       <r>  -15.4537    1.0000 </r>
       <r>  -14.9350    1.0000 </r>
       <r>  -14.9295    1.0000 </r>
       <r>  -12.9395    1.0000 </r>
       <r>  -12.9331    1.0000 </r>
       <r>  -12.5492    1.0000 </r>
       <r>  -12.5432    1.0000 </r>
       <r>  -11.6113    1.0000 </r>
       <r>  -11.3448    1.0000 </r>
       <r>  -11.3003    1.0000 </r>
       <r>  -11.2475    1.0000 </r>
       <r>  -11.2452    1.0000 </r>
       <r>  -11.0523    1.0000 </r>
       <r>  -11.0504    1.0000 </r>
[...]
       <r>  -13.0702    1.0000 </r>
       <r>  -12.0880    1.0000 </r>
       <r>  -12.0833    1.0000 </r>
       <r>  -12.0831    1.0000 </r>
       <r>  -12.0784    1.0000 </r>
       <r>  -11.0311    1.0000 </r>
       <r>  -11.0278    1.0000 </r>
       <r>  -11.0276    1.0000 </r>
       <r>  -11.0241    1.0000 </r>
       <r>  -10.5946    1.0000 </r>
       <r>  -10.5922    1.0000 </r>
       <r>  -10.5919    1.0000 </r>
       <r>  -10.5897    1.0000 </r>
       <r>   11.3653    0.0000 </r>
       <r>   11.3703    0.0000 </r>
       <r>   11.3712    0.0000 </r>
       <r>   11.3771    0.0000 </r>
       <r>   11.5925    0.0000 </r>
       <r>   11.6002    0.0000 </r>
       <r>   11.6011    0.0000 </r>
       <r>   11.6073    0.0000 </r>
       <r>   12.5259    0.0000 </r>
       <r>   12.5338    0.0000 </r>
       <r>   12.5364    0.0000 </r>
       <r>   12.5440    0.0000 </r>
       <r>   13.0958    0.0000 </r>
       <r>   13.1066    0.0000 </r>
       <r>   13.1085    0.0000 </r>
       <r>   13.1201    0.0000 </r>
      </set>
      <set comment="kpoint 266">
       <r>  -14.3687    1.0000 </r>
       <r>  -14.3652    1.0000 </r>
       <r>  -14.3649    1.0000 </r>
       <r>  -14.3616    1.0000 </r>
       <r>  -13.9180    1.0000 </r>
       <r>  -13.9149    1.0000 </r>
       <r>  -13.9145    1.0000 </r>
       <r>  -13.9114    1.0000 </r>
       <r>  -12.7729    1.0000 </r>
       <r>  -12.7671    1.0000 </r>
       <r>  -12.7669    1.0000 </r>
       <r>  -12.7613    1.0000 </r>
       <r>  -12.4329    1.0000 </r>
       <r>  -12.4277    1.0000 </r>
       <r>  -12.4275    1.0000 </r>
       <r>  -12.4221    1.0000 </r>
       <r>  -10.8698    1.0000 </r>
       <r>  -10.8667    1.0000 </r>
       <r>  -10.8665    1.0000 </r>
       <r>  -10.8634    1.0000 </r>
       <r>  -10.7163    1.0000 </r>
       <r>  -10.7136    1.0000 </r>
       <r>  -10.7134    1.0000 </r>
       <r>  -10.7106    1.0000 </r>
       <r>   12.2070    0.0000 </r>
       <r>   12.2202    0.0000 </r>
       <r>   12.2214    0.0000 </r>
       <r>   12.2255    0.0000 </r>
       <r>   12.2314    0.0000 </r>
       <r>   12.2348    0.0000 </r>
       <r>   12.2363    0.0000 </r>
       <r>   12.2465    0.0000 </r>
       <r>   12.7171    0.0000 </r>
       <r>   12.7345    0.0000 </r>
       <r>   12.7365    0.0000 </r>
       <r>   12.7369    0.0000 </r>
       <r>   12.7379    0.0000 </r>
       <r>   12.7386    0.0000 </r>
       <r>   12.7405    0.0000 </r>
       <r>   12.7596    0.0000 </r>
      </set>
     </set>
    </set>
   </array>
  </eigenvalues>
  <separator name="orbital magnetization" >
   <v name="MAGDIPOLOUT">      0.00000000      0.00000000      0.00000000</v>
  </separator>
  <dos>
   <i name="efermi">    -10.12804447 </i>
   <total>
    <array>
     <dimension dim="1">gridpoints</dimension>
     <dimension dim="2">spin</dimension>
     <field>energy</field>
     <field>total</field>
     <field>integrated</field>
     <set>
      <set comment="spin 1">
       <r>   -19.5396     0.0000     0.0000 </r>
       <r>   -19.4208     0.0000     0.0000 </r>
       <r>   -19.3021     0.0000     0.0000 </r>
       <r>   -19.1833     0.0000     0.0000 </r>
       <r>   -19.0646     0.0000     0.0000 </r>
       <r>   -18.9458     0.0000     0.0000 </r>
       <r>   -18.8271     0.0000     0.0000 </r>
       <r>   -18.7083     0.0000     0.0000 </r>
       <r>   -18.5895     0.0000     0.0000 </r>
       <r>   -18.4708     0.0000     0.0000 </r>
       <r>   -18.3520     0.0000     0.0000 </r>
       <r>   -18.2333     0.0000     0.0000 </r>
       <r>   -18.1145     0.0000     0.0000 </r>
       <r>   -17.9958     0.0000     0.0000 </r>
       <r>   -17.8770     0.0337     0.0040 </r>
       <r>   -17.7582     0.3827     0.0720 </r>
       <r>   -17.6395     0.1573     0.1210 </r>
       <r>   -17.5207     0.9503     0.2833 </r>
       <r>   -17.4020     0.3016     0.3426 </r>
       <r>   -17.2832     1.1676     0.5288 </r>
       <r>   -17.1644     0.8505     0.6578 </r>
       <r>   -17.0457     1.0322     0.8461 </r>
       <r>   -16.9269     0.7938     0.9920 </r>
       <r>   -16.8082     0.9726     1.1723 </r>
       <r>   -16.6894     1.5025     1.4398 </r>
       <r>   -16.5707     0.9122     1.6121 </r>
       <r>   -16.4519     1.4603     1.8363 </r>
       <r>   -16.3331     0.9684     2.0658 </r>
       <r>   -16.2144     2.1607     2.3816 </r>
       <r>   -16.0956     1.1497     2.6176 </r>
       <r>   -15.9769     0.8865     2.8288 </r>
       <r>   -15.8581     2.2606     3.1965 </r>
       <r>   -15.7394     1.8105     3.4764 </r>
       <r>   -15.6206     2.0436     3.8147 </r>
       <r>   -15.5018     1.8002     4.0736 </r>
       <r>   -15.3831     2.1030     4.4354 </r>
       <r>   -15.2643     2.4404     4.8088 </r>
       <r>   -15.1456     1.2525     5.1298 </r>
       <r>   -15.0268     2.7895     5.5396 </r>
       <r>   -14.9080     2.3998     5.9403 </r>
       <r>   -14.7893     1.5073     6.2737 </r>
       <r>   -14.6705     1.3454     6.6181 </r>
       <r>   -14.5518     3.1784     7.1691 </r>
       <r>   -14.4330     1.6658     7.5804 </r>
       <r>   -14.3143     2.4065     8.0244 </r>
       <r>   -14.1955     2.4269     8.5041 </r>
       <r>   -14.0767     4.0414     9.1125 </r>
       <r>   -13.9580     2.1927     9.4990 </r>
       <r>   -13.8392     3.8658    10.0917 </r>
       <r>   -13.7205     3.3017    10.6307 </r>
       <r>   -13.6017     3.5594    11.2371 </r>
       <r>   -13.4830     4.4363    11.9322 </r>
       <r>   -13.3642     2.3987    12.3796 </r>
       <r>   -13.2454     3.8096    13.0244 </r>
       <r>   -13.1267     5.0350    13.8063 </r>
       <r>   -13.0079     3.5690    14.4882 </r>
       <r>   -12.8892     4.8533    15.2923 </r>
       <r>   -12.7704     4.2268    16.0133 </r>
       <r>   -12.6516     3.7162    16.7860 </r>
       <r>   -12.5329     6.2195    17.7500 </r>
       <r>   -12.4141     6.0724    18.8158 </r>
       <r>   -12.2954     6.3328    19.7559 </r>
       <r>   -12.1766     6.5912    20.9684 </r>
       <r>   -12.0579     6.0762    22.1155 </r>
       <r>   -11.9391     8.1461    23.7364 </r>
       <r>   -11.8203     7.6847    24.9164 </r>
       <r>   -11.7016     9.4208    26.5165 </r>
       <r>   -11.5828     8.6764    27.8599 </r>
       <r>   -11.4641     7.8659    29.2637 </r>
       <r>   -11.3453     8.2078    30.6982 </r>
       <r>   -11.2266     9.4899    32.3429 </r>
       <r>   -11.1078     6.9438    33.5633 </r>
       <r>   -10.9890    10.8065    35.3705 </r>
       <r>   -10.8703     8.5576    36.8989 </r>
       <r>   -10.7515    10.1064    38.5828 </r>
       <r>   -10.6328    11.9121    40.6533 </r>
       <r>   -10.5140    13.8297    42.9265 </r>
       <r>   -10.3952    16.8291    45.7713 </r>
       <r>   -10.2765     8.3000    47.4933 </r>
       <r>   -10.1577     1.6586    48.0000 </r>
       <r>   -10.0390     0.0000    48.0000 </r>
       <r>    -9.9202     0.0000    48.0000 </r>
       <r>    -9.8015     0.0000    48.0000 </r>
       <r>    -9.6827     0.0000    48.0000 </r>
       <r>    -9.5639     0.0000    48.0000 </r>
       <r>    -9.4452     0.0000    48.0000 </r>
       <r>    -9.3264     0.0000    48.0000 </r>
       <r>    -9.2077     0.0000    48.0000 </r>
       <r>    -9.0889     0.0000    48.0000 </r>
       <r>    -8.9702     0.0000    48.0000 </r>
       <r>    -8.8514     0.0000    48.0000 </r>
       <r>    -8.7326     0.0000    48.0000 </r>
       <r>    -8.6139     0.0000    48.0000 </r>
       <r>    -8.4951     0.0000    48.0000 </r>
       <r>    -8.3764     0.0000    48.0000 </r>
       <r>    -8.2576     0.0000    48.0000 </r>
       <r>    -8.1388     0.0000    48.0000 </r>
       <r>    -8.0201     0.0000    48.0000 </r>
       <r>    -7.9013     0.0000    48.0000 </r>
       <r>    -7.7826     0.0000    48.0000 </r>
       <r>    -7.6638     0.0000    48.0000 </r>
       <r>    -7.5451     0.0000    48.0000 </r>
       <r>    -7.4263     0.0000    48.0000 </r>
       <r>    -7.3075     0.0000    48.0000 </r>
       <r>    -7.1888     0.0000    48.0000 </r>
       <r>    -7.0700     0.0000    48.0000 </r>
       <r>    -6.9513     0.0000    48.0000 </r>
       <r>    -6.8325     0.0000    48.0000 </r>
       <r>    -6.7138     0.0000    48.0000 </r>
       <r>    -6.5950     0.0000    48.0000 </r>
       <r>    -6.4762     0.0000    48.0000 </r>
       <r>    -6.3575     0.0000    48.0000 </r>
       <r>    -6.2387     0.0000    48.0000 </r>
       <r>    -6.1200     0.0000    48.0000 </r>
       <r>    -6.0012     0.0000    48.0000 </r>
       <r>    -5.8825     0.0000    48.0000 </r>
       <r>    -5.7637     0.0000    48.0000 </r>
       <r>    -5.6449     0.0000    48.0000 </r>
       <r>    -5.5262     0.0000    48.0000 </r>
       <r>    -5.4074     0.0000    48.0000 </r>
       <r>    -5.2887     0.0000    48.0000 </r>
       <r>    -5.1699     0.0000    48.0000 </r>
       <r>    -5.0511     0.0000    48.0000 </r>
       <r>    -4.9324     0.0000    48.0000 </r>
       <r>    -4.8136     0.0000    48.0000 </r>
       <r>    -4.6949     0.0000    48.0000 </r>
       <r>    -4.5761     0.0000    48.0000 </r>
       <r>    -4.4574     0.0000    48.0000 </r>
       <r>    -4.3386     0.0000    48.0000 </r>
       <r>    -4.2198     0.0000    48.0000 </r>
       <r>    -4.1011     0.0000    48.0000 </r>
       <r>    -3.9823     0.0000    48.0000 </r>
       <r>    -3.8636     0.0000    48.0000 </r>
       <r>    -3.7448     0.0000    48.0000 </r>
       <r>    -3.6261     0.0000    48.0000 </r>
       <r>    -3.5073     0.0000    48.0000 </r>
       <r>    -3.3885     0.0000    48.0000 </r>
       <r>    -3.2698     0.0000    48.0000 </r>
       <r>    -3.1510     0.0000    48.0000 </r>
       <r>    -3.0323     0.0000    48.0000 </r>
       <r>    -2.9135     0.0000    48.0000 </r>
       <r>    -2.7947     0.0000    48.0000 </r>
       <r>    -2.6760     0.0000    48.0000 </r>
       <r>    -2.5572     0.0000    48.0000 </r>
       <r>    -2.4385     0.0000    48.0000 </r>
       <r>    -2.3197     0.0000    48.0000 </r>
       <r>    -2.2010     0.0000    48.0000 </r>
       <r>    -2.0822     0.0000    48.0000 </r>
       <r>    -1.9634     0.0000    48.0000 </r>
       <r>    -1.8447     0.0000    48.0000 </r>
       <r>    -1.7259     0.0000    48.0000 </r>
       <r>    -1.6072     0.0000    48.0000 </r>
       <r>    -1.4884     0.0000    48.0000 </r>
       <r>    -1.3697     0.0000    48.0000 </r>
       <r>    -1.2509     0.0000    48.0000 </r>
       <r>    -1.1321     0.0000    48.0000 </r>
       <r>    -1.0134     0.0000    48.0000 </r>
       <r>    -0.8946     0.0000    48.0000 </r>
       <r>    -0.7759     0.0000    48.0000 </r>
       <r>    -0.6571     0.0000    48.0000 </r>
       <r>    -0.5383     0.0000    48.0000 </r>
       <r>    -0.4196     0.0000    48.0000 </r>
       <r>    -0.3008     0.0000    48.0000 </r>
       <r>    -0.1821     0.0000    48.0000 </r>
       <r>    -0.0633     0.0000    48.0000 </r>
       <r>     0.0554     0.0000    48.0000 </r>
       <r>     0.1742     0.0000    48.0000 </r>
       <r>     0.2930     0.0000    48.0000 </r>
       <r>     0.4117     0.0000    48.0000 </r>
       <r>     0.5305     0.0000    48.0000 </r>
       <r>     0.6492     0.0000    48.0000 </r>
       <r>     0.7680     0.0000    48.0000 </r>
       <r>     0.8867     0.0000    48.0000 </r>
       <r>     1.0055     0.0000    48.0000 </r>
       <r>     1.1243     0.0000    48.0000 </r>
       <r>     1.2430     0.0000    48.0000 </r>
       <r>     1.3618     0.0000    48.0000 </r>
       <r>     1.4805     0.0000    48.0000 </r>
       <r>     1.5993     0.0000    48.0000 </r>
       <r>     1.7181     0.0000    48.0000 </r>
       <r>     1.8368     0.0000    48.0000 </r>
       <r>     1.9556     0.0000    48.0000 </r>
       <r>     2.0743     0.0000    48.0000 </r>
       <r>     2.1931     0.0000    48.0000 </r>
       <r>     2.3118     0.0000    48.0000 </r>
       <r>     2.4306     0.0000    48.0000 </r>
       <r>     2.5494     0.0000    48.0000 </r>
       <r>     2.6681     0.0000    48.0000 </r>
       <r>     2.7869     0.0000    48.0000 </r>
       <r>     2.9056     0.0000    48.0000 </r>
       <r>     3.0244     0.0000    48.0000 </r>
       <r>     3.1431     0.0000    48.0000 </r>
       <r>     3.2619     0.0000    48.0000 </r>
       <r>     3.3807     0.0000    48.0000 </r>
       <r>     3.4994     0.0000    48.0000 </r>
       <r>     3.6182     0.0000    48.0000 </r>
       <r>     3.7369     0.0000    48.0000 </r>
       <r>     3.8557     0.0000    48.0000 </r>
       <r>     3.9745     0.0000    48.0000 </r>
       <r>     4.0932     0.0000    48.0000 </r>
       <r>     4.2120     0.0000    48.0000 </r>
       <r>     4.3307     0.0000    48.0000 </r>
       <r>     4.4495     0.0000    48.0000 </r>
       <r>     4.5682     0.0000    48.0000 </r>
       <r>     4.6870     0.0000    48.0000 </r>
       <r>     4.8058     0.0000    48.0000 </r>
       <r>     4.9245     0.0000    48.0000 </r>
       <r>     5.0433     0.0000    48.0000 </r>
       <r>     5.1620     0.0000    48.0000 </r>
       <r>     5.2808     0.0000    48.0000 </r>
       <r>     5.3995     0.0000    48.0000 </r>
       <r>     5.5183     0.0000    48.0000 </r>
       <r>     5.6371     0.0000    48.0000 </r>
       <r>     5.7558     0.0000    48.0000 </r>
       <r>     5.8746     0.0000    48.0000 </r>
       <r>     5.9933     0.0000    48.0000 </r>
       <r>     6.1121     0.0000    48.0000 </r>
       <r>     6.2309     0.0000    48.0000 </r>
       <r>     6.3496     0.0000    48.0000 </r>
       <r>     6.4684     0.0000    48.0000 </r>
       <r>     6.5871     0.0000    48.0000 </r>
       <r>     6.7059     0.0000    48.0000 </r>
       <r>     6.8246     0.0000    48.0000 </r>
       <r>     6.9434     0.0000    48.0000 </r>
       <r>     7.0622     0.0000    48.0000 </r>
       <r>     7.1809     0.0000    48.0000 </r>
       <r>     7.2997     0.0000    48.0000 </r>
       <r>     7.4184     0.0000    48.0000 </r>
       <r>     7.5372     0.0000    48.0000 </r>
       <r>     7.6559     0.0000    48.0000 </r>
       <r>     7.7747     0.0000    48.0000 </r>
       <r>     7.8935     0.0000    48.0000 </r>
       <r>     8.0122     0.0000    48.0000 </r>
       <r>     8.1310     0.0204    48.0024 </r>
       <r>     8.2497     0.1276    48.0189 </r>
       <r>     8.3685     0.1277    48.0341 </r>
       <r>     8.4873     0.3347    48.0814 </r>
       <r>     8.6060     0.5103    48.1477 </r>
       <r>     8.7248     0.1327    48.1635 </r>
       <r>     8.8435     0.6422    48.2543 </r>
       <r>     8.9623     0.1906    48.2840 </r>
       <r>     9.0810     0.4066    48.3324 </r>
       <r>     9.1998     0.5623    48.4115 </r>
       <r>     9.3186     1.3475    48.6259 </r>
       <r>     9.4373     2.7045    49.0144 </r>
       <r>     9.5561     3.1159    49.4685 </r>
       <r>     9.6748     2.6984    49.9189 </r>
       <r>     9.7936     3.1371    50.5089 </r>
       <r>     9.9123     2.7029    50.9574 </r>
       <r>    10.0311     3.2036    51.5471 </r>
       <r>    10.1499     3.1255    52.1591 </r>
       <r>    10.2686     4.1141    52.7765 </r>
       <r>    10.3874     3.1603    53.3526 </r>
       <r>    10.5061     3.5729    54.1819 </r>
       <r>    10.6249     4.6738    54.9566 </r>
       <r>    10.7437     2.9726    55.6257 </r>
       <r>    10.8624     4.8273    56.5051 </r>
       <r>    10.9812     4.0256    57.1826 </r>
       <r>    11.0999     8.1331    58.4431 </r>
       <r>    11.2187     5.9417    59.3950 </r>
       <r>    11.3374     4.4542    60.4381 </r>
       <r>    11.4562     5.1603    61.2833 </r>
       <r>    11.5750     5.3818    62.2755 </r>
       <r>    11.6937     7.1566    63.5696 </r>
       <r>    11.8125     5.3631    64.6369 </r>
       <r>    11.9312     6.6162    65.8653 </r>
       <r>    12.0500     8.7149    67.2319 </r>
       <r>    12.1687     5.3383    68.2552 </r>
       <r>    12.2875     9.3705    69.8931 </r>
       <r>    12.4063     6.1942    71.0538 </r>
       <r>    12.5250     8.1925    72.4805 </r>
       <r>    12.6438     5.2069    73.6184 </r>
       <r>    12.7625     5.5706    74.6085 </r>
       <r>    12.8813     3.9826    75.3669 </r>
       <r>    13.0001     3.8970    76.0537 </r>
       <r>    13.1188     4.2791    76.7430 </r>
       <r>    13.2376     3.4940    77.3165 </r>
       <r>    13.3563     6.6464    78.3878 </r>
       <r>    13.4751     1.9411    78.6623 </r>
       <r>    13.5938     0.6693    78.7954 </r>
       <r>    13.7126     1.1797    78.9659 </r>
       <r>    13.8314     1.7564    79.2616 </r>
       <r>    13.9501     1.6836    79.5636 </r>
       <r>    14.0689     1.3848    79.7932 </r>
       <r>    14.1876     0.4173    79.8526 </r>
       <r>    14.3064     0.4474    79.9168 </r>
       <r>    14.4251     0.1597    79.9584 </r>
       <r>    14.5439     0.0638    80.0000 </r>
       <r>    14.6627     0.0000    80.0000 </r>
       <r>    14.7814     0.0000    80.0000 </r>
       <r>    14.9002     0.0000    80.0000 </r>
       <r>    15.0189     0.0000    80.0000 </r>
       <r>    15.1377     0.0000    80.0000 </r>
       <r>    15.2565     0.0000    80.0000 </r>
       <r>    15.3752     0.0000    80.0000 </r>
       <r>    15.4940     0.0000    80.0000 </r>
       <r>    15.6127     0.0000    80.0000 </r>
       <r>    15.7315     0.0000    80.0000 </r>
       <r>    15.8502     0.0000    80.0000 </r>
       <r>    15.9690     0.0000    80.0000 </r>
       <r>    16.0878     0.0000    80.0000 </r>
      </set>
     </set>
    </array>
   </total>
  </dos>
 </calculation>
 <structure name="finalpos" >
  <crystal>
   <varray name="basis" >
    <v>       1.95429405       3.38493658       0.00000000 </v>
    <v>      -2.93144107       1.69246829       0.00000000 </v>
    <v>       0.00000000       0.00000000       9.56312345 </v>
   </varray>
   <i name="volume">    126.52321019 </i>
   <varray name="rec_basis" >
    <v>       0.12792343       0.22156988      -0.00000000 </v>
    <v>      -0.25584686       0.14771325       0.00000000 </v>
    <v>       0.00000000      -0.00000000       0.10456835 </v>
   </varray>
  </crystal>
  <varray name="positions" >
   <v>       0.25091984       0.16758651       0.08425317 </v>
   <v>       0.50000000       0.66666667       0.08333333 </v>
   <v>       0.75000000       0.16666667       0.08333333 </v>
   <v>       0.00000000       0.66666667       0.08333333 </v>
   <v>       0.25000000       0.16666667       0.41666667 </v>
   <v>       0.50000000       0.66666667       0.41666667 </v>
   <v>       0.75000000       0.16666667       0.41666667 </v>
   <v>       0.00000000       0.66666667       0.41666667 </v>
   <v>       0.25000000       0.16666667       0.75000000 </v>
   <v>       0.50000000       0.66666667       0.75000000 </v>
   <v>       0.75000000       0.16666667       0.75000000 </v>
   <v>       0.00000000       0.66666667       0.75000000 </v>
   <v>       0.25000000       0.83333333       0.25000000 </v>
   <v>       0.50000000       0.33333333       0.25000000 </v>
   <v>       0.75000000       0.83333333       0.25000000 </v>
   <v>       0.00000000       0.33333333       0.25000000 </v>
   <v>       0.25000000       0.83333333       0.58333333 </v>
   <v>       0.50000000       0.33333333       0.58333333 </v>
   <v>       0.75000000       0.83333333       0.58333333 </v>
   <v>       0.00000000       0.33333333       0.58333333 </v>
   <v>       0.25000000       0.83333333       0.91666667 </v>
   <v>       0.50000000       0.33333333       0.91666667 </v>
   <v>       0.75000000       0.83333333       0.91666667 </v>
   <v>       0.00000000       0.33333333       0.91666667 </v>
  </varray>
 </structure>
</modeling>
