<?xml version="1.0" encoding="ISO-8859-1"?>
<modeling>
 <generator>
  <i name="program" type="string">vasp </i>
  <i name="version" type="string">6.4.3  </i>
  <i name="subversion" type="string">19Mar24 (build Jun 20 2024 15:56:09) complex                          parallel </i>
  <i name="platform" type="string">LinuxNV_CrayMPICH </i>
  <i name="date" type="string">2025 01 13 </i>
  <i name="time" type="string">18:00:28 </i>
 </generator>
 <incar>
  <i type="string" name="PREC">Accurate</i>
  <i type="int" name="IBRION">    -1</i>
  <i name="EDIFF">      0.00000001</i>
  <i type="int" name="NSW">     0</i>
  <i name="ENCUT">    500.00000000</i>
  <i type="logical" name="LREAL"> F  </i>
  <i type="int" name="ISMEAR">     0</i>
  <i name="SIGMA">      0.01000000</i>
  <i type="logical" name="LWAVE"> F  </i>
  <i type="logical" name="LCHARG"> F  </i>
 </incar>
 <primitive_cell>
  <structure name="primitive_cell" >
   <crystal>
    <varray name="basis" >
     <v>      -2.72185119       2.72185119       5.44370237 </v>
     <v>       2.72185119      -5.44370237       2.72185119 </v>
     <v>       2.72185119       2.72185119       0.00000000 </v>
    </varray>
    <i name="volume">    161.31810740 </i>
    <varray name="rec_basis" >
     <v>      -0.04592463       0.04592463       0.13777388 </v>
     <v>       0.09184925      -0.09184925       0.09184925 </v>
     <v>       0.22962313       0.13777388       0.04592463 </v>
    </varray>
   </crystal>
   <varray name="positions" >
    <v>       0.00149989       0.00000000       1.00000000 </v>
    <v>       0.50000000       0.00000000       0.50000000 </v>
    <v>       0.25000000       0.50000000       0.75000000 </v>
    <v>       0.75000000       0.50000000       0.25000000 </v>
    <v>       0.18750000       0.12500000       0.56250000 </v>
    <v>       0.68750000       0.12500000       0.06250000 </v>
    <v>       0.43750000       0.62500000       0.31250000 </v>
    <v>       0.93750000       0.62500000       0.81250000 </v>
   </varray>
  </structure>
  <varray name="primitive_index" >
   <v type="int" >        1 </v>
   <v type="int" >        2 </v>
   <v type="int" >        3 </v>
   <v type="int" >        4 </v>
   <v type="int" >        5 </v>
   <v type="int" >        6 </v>
   <v type="int" >        7 </v>
   <v type="int" >        8 </v>
  </varray>
 </primitive_cell>
 <kpoints>
  <generation param="Gamma">
   <v type="int" name="divisions">       6        7       11 </v>
   <v name="usershift">      0.00000000       0.00000000       0.00000000 </v>
   <v name="genvec1">      0.16666667      -0.00000000      -0.00000000 </v>
   <v name="genvec2">     -0.00000000       0.14285714       0.00000000 </v>
   <v name="genvec3">      0.00000000      -0.00000000       0.09090909 </v>
   <v name="shift">      0.00000000       0.00000000       0.00000000 </v>
  </generation>
  <varray name="kpointlist" >
   <v>       0.00000000       0.00000000       0.00000000 </v>
   <v>       0.16666667       0.00000000       0.00000000 </v>
   <v>       0.33333333       0.00000000       0.00000000 </v>
   <v>       0.50000000       0.00000000       0.00000000 </v>
   <v>       0.00000000       0.14285714       0.00000000 </v>
   <v>       0.16666667       0.14285714       0.00000000 </v>
   <v>       0.33333333       0.14285714       0.00000000 </v>
   <v>       0.50000000       0.14285714       0.00000000 </v>
   <v>      -0.33333333       0.14285714       0.00000000 </v>
   <v>      -0.16666667       0.14285714       0.00000000 </v>
   <v>       0.00000000       0.28571429       0.00000000 </v>
   <v>       0.16666667       0.28571429       0.00000000 </v>
   <v>       0.33333333       0.28571429       0.00000000 </v>
   <v>       0.50000000       0.28571429       0.00000000 </v>
   <v>      -0.33333333       0.28571429       0.00000000 </v>
   <v>      -0.16666667       0.28571429       0.00000000 </v>
   <v>       0.00000000       0.42857143       0.00000000 </v>
   <v>       0.16666667       0.42857143       0.00000000 </v>
   <v>       0.33333333       0.42857143       0.00000000 </v>
   <v>       0.50000000       0.42857143       0.00000000 </v>
   <v>      -0.33333333       0.42857143       0.00000000 </v>
   <v>      -0.16666667       0.42857143       0.00000000 </v>
   <v>       0.00000000       0.00000000       0.09090909 </v>
   <v>       0.16666667       0.00000000       0.09090909 </v>
   <v>       0.33333333       0.00000000       0.09090909 </v>
   <v>       0.50000000       0.00000000       0.09090909 </v>
   <v>      -0.33333333       0.00000000       0.09090909 </v>
   <v>      -0.16666667       0.00000000       0.09090909 </v>
   <v>       0.00000000       0.14285714       0.09090909 </v>
   <v>       0.16666667       0.14285714       0.09090909 </v>
   <v>       0.33333333       0.14285714       0.09090909 </v>
   <v>       0.50000000       0.14285714       0.09090909 </v>
   <v>      -0.33333333       0.14285714       0.09090909 </v>
   <v>      -0.16666667       0.14285714       0.09090909 </v>
   <v>       0.00000000       0.28571429       0.09090909 </v>
   <v>       0.16666667       0.28571429       0.09090909 </v>
   <v>       0.33333333       0.28571429       0.09090909 </v>
   <v>       0.50000000       0.28571429       0.09090909 </v>
   <v>      -0.33333333       0.28571429       0.09090909 </v>
   <v>      -0.16666667       0.28571429       0.09090909 </v>
   <v>       0.00000000       0.42857143       0.09090909 </v>
   <v>       0.16666667       0.42857143       0.09090909 </v>
   <v>       0.33333333       0.42857143       0.09090909 </v>
   <v>       0.50000000       0.42857143       0.09090909 </v>
   <v>      -0.33333333       0.42857143       0.09090909 </v>
   <v>      -0.16666667       0.42857143       0.09090909 </v>
   <v>       0.00000000      -0.42857143       0.09090909 </v>
   <v>       0.16666667      -0.42857143       0.09090909 </v>
   <v>       0.33333333      -0.42857143       0.09090909 </v>
   <v>       0.50000000      -0.42857143       0.09090909 </v>
   <v>      -0.33333333      -0.42857143       0.09090909 </v>
   <v>      -0.16666667      -0.42857143       0.09090909 </v>
   <v>       0.00000000      -0.28571429       0.09090909 </v>
   <v>       0.16666667      -0.28571429       0.09090909 </v>
   <v>       0.33333333      -0.28571429       0.09090909 </v>
   <v>       0.50000000      -0.28571429       0.09090909 </v>
   <v>      -0.33333333      -0.28571429       0.09090909 </v>
   <v>      -0.16666667      -0.28571429       0.09090909 </v>
   <v>       0.00000000      -0.14285714       0.09090909 </v>
   <v>       0.16666667      -0.14285714       0.09090909 </v>
   <v>       0.33333333      -0.14285714       0.09090909 </v>
   <v>       0.50000000      -0.14285714       0.09090909 </v>
   <v>      -0.33333333      -0.14285714       0.09090909 </v>
   <v>      -0.16666667      -0.14285714       0.09090909 </v>
   <v>       0.00000000       0.00000000       0.18181818 </v>
   <v>       0.16666667       0.00000000       0.18181818 </v>
   <v>       0.33333333       0.00000000       0.18181818 </v>
   <v>       0.50000000       0.00000000       0.18181818 </v>
   <v>      -0.33333333       0.00000000       0.18181818 </v>
   <v>      -0.16666667       0.00000000       0.18181818 </v>
   <v>       0.00000000       0.14285714       0.18181818 </v>
   <v>       0.16666667       0.14285714       0.18181818 </v>
   <v>       0.33333333       0.14285714       0.18181818 </v>
   <v>       0.50000000       0.14285714       0.18181818 </v>
   <v>      -0.33333333       0.14285714       0.18181818 </v>
   <v>      -0.16666667       0.14285714       0.18181818 </v>
   <v>       0.00000000       0.28571429       0.18181818 </v>
   <v>       0.16666667       0.28571429       0.18181818 </v>
   <v>       0.33333333       0.28571429       0.18181818 </v>
   <v>       0.50000000       0.28571429       0.18181818 </v>
   <v>      -0.33333333       0.28571429       0.18181818 </v>
   <v>      -0.16666667       0.28571429       0.18181818 </v>
   <v>       0.00000000       0.42857143       0.18181818 </v>
   <v>       0.16666667       0.42857143       0.18181818 </v>
   <v>       0.33333333       0.42857143       0.18181818 </v>
   <v>       0.50000000       0.42857143       0.18181818 </v>
   <v>      -0.33333333       0.42857143       0.18181818 </v>
   <v>      -0.16666667       0.42857143       0.18181818 </v>
   <v>       0.00000000      -0.42857143       0.18181818 </v>
   <v>       0.16666667      -0.42857143       0.18181818 </v>
   <v>       0.33333333      -0.42857143       0.18181818 </v>
   <v>       0.50000000      -0.42857143       0.18181818 </v>
   <v>      -0.33333333      -0.42857143       0.18181818 </v>
   <v>      -0.16666667      -0.42857143       0.18181818 </v>
   <v>       0.00000000      -0.28571429       0.18181818 </v>
   <v>       0.16666667      -0.28571429       0.18181818 </v>
   <v>       0.33333333      -0.28571429       0.18181818 </v>
   <v>       0.50000000      -0.28571429       0.18181818 </v>
   <v>      -0.33333333      -0.28571429       0.18181818 </v>
   <v>      -0.16666667      -0.28571429       0.18181818 </v>
   <v>       0.00000000      -0.14285714       0.18181818 </v>
   <v>       0.16666667      -0.14285714       0.18181818 </v>
   <v>       0.33333333      -0.14285714       0.18181818 </v>
   <v>       0.50000000      -0.14285714       0.18181818 </v>
   <v>      -0.33333333      -0.14285714       0.18181818 </v>
   <v>      -0.16666667      -0.14285714       0.18181818 </v>
   <v>       0.00000000       0.00000000       0.27272727 </v>
   <v>       0.16666667       0.00000000       0.27272727 </v>
   <v>       0.33333333       0.00000000       0.27272727 </v>
   <v>       0.50000000       0.00000000       0.27272727 </v>
   <v>      -0.33333333       0.00000000       0.27272727 </v>
   <v>      -0.16666667       0.00000000       0.27272727 </v>
   <v>       0.00000000       0.14285714       0.27272727 </v>
   <v>       0.16666667       0.14285714       0.27272727 </v>
   <v>       0.33333333       0.14285714       0.27272727 </v>
   <v>       0.50000000       0.14285714       0.27272727 </v>
   <v>      -0.33333333       0.14285714       0.27272727 </v>
   <v>      -0.16666667       0.14285714       0.27272727 </v>
   <v>       0.00000000       0.28571429       0.27272727 </v>
   <v>       0.16666667       0.28571429       0.27272727 </v>
   <v>       0.33333333       0.28571429       0.27272727 </v>
   <v>       0.50000000       0.28571429       0.27272727 </v>
   <v>      -0.33333333       0.28571429       0.27272727 </v>
   <v>      -0.16666667       0.28571429       0.27272727 </v>
   <v>       0.00000000       0.42857143       0.27272727 </v>
   <v>       0.16666667       0.42857143       0.27272727 </v>
   <v>       0.33333333       0.42857143       0.27272727 </v>
   <v>       0.50000000       0.42857143       0.27272727 </v>
   <v>      -0.33333333       0.42857143       0.27272727 </v>
   <v>      -0.16666667       0.42857143       0.27272727 </v>
   <v>       0.00000000      -0.42857143       0.27272727 </v>
   <v>       0.16666667      -0.42857143       0.27272727 </v>
   <v>       0.33333333      -0.42857143       0.27272727 </v>
   <v>       0.50000000      -0.42857143       0.27272727 </v>
   <v>      -0.33333333      -0.42857143       0.27272727 </v>
   <v>      -0.16666667      -0.42857143       0.27272727 </v>
   <v>       0.00000000      -0.28571429       0.27272727 </v>
   <v>       0.16666667      -0.28571429       0.27272727 </v>
   <v>       0.33333333      -0.28571429       0.27272727 </v>
   <v>       0.50000000      -0.28571429       0.27272727 </v>
   <v>      -0.33333333      -0.28571429       0.27272727 </v>
   <v>      -0.16666667      -0.28571429       0.27272727 </v>
   <v>       0.00000000      -0.14285714       0.27272727 </v>
   <v>       0.16666667      -0.14285714       0.27272727 </v>
   <v>       0.33333333      -0.14285714       0.27272727 </v>
   <v>       0.50000000      -0.14285714       0.27272727 </v>
   <v>      -0.33333333      -0.14285714       0.27272727 </v>
   <v>      -0.16666667      -0.14285714       0.27272727 </v>
   <v>       0.00000000       0.00000000       0.36363636 </v>
   <v>       0.16666667       0.00000000       0.36363636 </v>
   <v>       0.33333333       0.00000000       0.36363636 </v>
   <v>       0.50000000       0.00000000       0.36363636 </v>
   <v>      -0.33333333       0.00000000       0.36363636 </v>
   <v>      -0.16666667       0.00000000       0.36363636 </v>
   <v>       0.00000000       0.14285714       0.36363636 </v>
   <v>       0.16666667       0.14285714       0.36363636 </v>
   <v>       0.33333333       0.14285714       0.36363636 </v>
   <v>       0.50000000       0.14285714       0.36363636 </v>
   <v>      -0.33333333       0.14285714       0.36363636 </v>
   <v>      -0.16666667       0.14285714       0.36363636 </v>
   <v>       0.00000000       0.28571429       0.36363636 </v>
   <v>       0.16666667       0.28571429       0.36363636 </v>
   <v>       0.33333333       0.28571429       0.36363636 </v>
   <v>       0.50000000       0.28571429       0.36363636 </v>
   <v>      -0.33333333       0.28571429       0.36363636 </v>
   <v>      -0.16666667       0.28571429       0.36363636 </v>
   <v>       0.00000000       0.42857143       0.36363636 </v>
   <v>       0.16666667       0.42857143       0.36363636 </v>
   <v>       0.33333333       0.42857143       0.36363636 </v>
   <v>       0.50000000       0.42857143       0.36363636 </v>
   <v>      -0.33333333       0.42857143       0.36363636 </v>
   <v>      -0.16666667       0.42857143       0.36363636 </v>
   <v>       0.00000000      -0.42857143       0.36363636 </v>
   <v>       0.16666667      -0.42857143       0.36363636 </v>
   <v>       0.33333333      -0.42857143       0.36363636 </v>
   <v>       0.50000000      -0.42857143       0.36363636 </v>
   <v>      -0.33333333      -0.42857143       0.36363636 </v>
   <v>      -0.16666667      -0.42857143       0.36363636 </v>
   <v>       0.00000000      -0.28571429       0.36363636 </v>
   <v>       0.16666667      -0.28571429       0.36363636 </v>
   <v>       0.33333333      -0.28571429       0.36363636 </v>
   <v>       0.50000000      -0.28571429       0.36363636 </v>
   <v>      -0.33333333      -0.28571429       0.36363636 </v>
   <v>      -0.16666667      -0.28571429       0.36363636 </v>
   <v>       0.00000000      -0.14285714       0.36363636 </v>
   <v>       0.16666667      -0.14285714       0.36363636 </v>
   <v>       0.33333333      -0.14285714       0.36363636 </v>
   <v>       0.50000000      -0.14285714       0.36363636 </v>
   <v>      -0.33333333      -0.14285714       0.36363636 </v>
   <v>      -0.16666667      -0.14285714       0.36363636 </v>
   <v>       0.00000000       0.00000000       0.45454545 </v>
   <v>       0.16666667       0.00000000       0.45454545 </v>
   <v>       0.33333333       0.00000000       0.45454545 </v>
   <v>       0.50000000       0.00000000       0.45454545 </v>
   <v>      -0.33333333       0.00000000       0.45454545 </v>
   <v>      -0.16666667       0.00000000       0.45454545 </v>
   <v>       0.00000000       0.14285714       0.45454545 </v>
   <v>       0.16666667       0.14285714       0.45454545 </v>
   <v>       0.33333333       0.14285714       0.45454545 </v>
   <v>       0.50000000       0.14285714       0.45454545 </v>
   <v>      -0.33333333       0.14285714       0.45454545 </v>
   <v>      -0.16666667       0.14285714       0.45454545 </v>
   <v>       0.00000000       0.28571429       0.45454545 </v>
   <v>       0.16666667       0.28571429       0.45454545 </v>
   <v>       0.33333333       0.28571429       0.45454545 </v>
   <v>       0.50000000       0.28571429       0.45454545 </v>
   <v>      -0.33333333       0.28571429       0.45454545 </v>
   <v>      -0.16666667       0.28571429       0.45454545 </v>
   <v>       0.00000000       0.42857143       0.45454545 </v>
   <v>       0.16666667       0.42857143       0.45454545 </v>
   <v>       0.33333333       0.42857143       0.45454545 </v>
   <v>       0.50000000       0.42857143       0.45454545 </v>
   <v>      -0.33333333       0.42857143       0.45454545 </v>
   <v>      -0.16666667       0.42857143       0.45454545 </v>
   <v>       0.00000000      -0.42857143       0.45454545 </v>
   <v>       0.16666667      -0.42857143       0.45454545 </v>
   <v>       0.33333333      -0.42857143       0.45454545 </v>
   <v>       0.50000000      -0.42857143       0.45454545 </v>
   <v>      -0.33333333      -0.42857143       0.45454545 </v>
   <v>      -0.16666667      -0.42857143       0.45454545 </v>
   <v>       0.00000000      -0.28571429       0.45454545 </v>
   <v>       0.16666667      -0.28571429       0.45454545 </v>
   <v>       0.33333333      -0.28571429       0.45454545 </v>
   <v>       0.50000000      -0.28571429       0.45454545 </v>
   <v>      -0.33333333      -0.28571429       0.45454545 </v>
   <v>      -0.16666667      -0.28571429       0.45454545 </v>
   <v>       0.00000000      -0.14285714       0.45454545 </v>
   <v>       0.16666667      -0.14285714       0.45454545 </v>
   <v>       0.33333333      -0.14285714       0.45454545 </v>
   <v>       0.50000000      -0.14285714       0.45454545 </v>
   <v>      -0.33333333      -0.14285714       0.45454545 </v>
   <v>      -0.16666667      -0.14285714       0.45454545 </v>
  </varray>
  <varray name="weights" >
   <v>       0.00216450 </v>
   <v>       0.00432900 </v>
   <v>       0.00432900 </v>
   <v>       0.00216450 </v>
   <v>       0.00432900 </v>
   <v>       0.00432900 </v>
   <v>       0.00432900 </v>
   <v>       0.00432900 </v>
   <v>       0.00432900 </v>
   <v>       0.00432900 </v>
   <v>       0.00432900 </v>
   <v>       0.00432900 </v>
   <v>       0.00432900 </v>
   <v>       0.00432900 </v>
   <v>       0.00432900 </v>
   <v>       0.00432900 </v>
   <v>       0.00432900 </v>
   <v>       0.00432900 </v>
   <v>       0.00432900 </v>
   <v>       0.00432900 </v>
   <v>       0.00432900 </v>
   <v>       0.00432900 </v>
   <v>       0.00432900 </v>
   <v>       0.00432900 </v>
   <v>       0.00432900 </v>
   <v>       0.00432900 </v>
   <v>       0.00432900 </v>
   <v>       0.00432900 </v>
   <v>       0.00432900 </v>
   <v>       0.00432900 </v>
   <v>       0.00432900 </v>
   <v>       0.00432900 </v>
   <v>       0.00432900 </v>
   <v>       0.00432900 </v>
   <v>       0.00432900 </v>
   <v>       0.00432900 </v>
   <v>       0.00432900 </v>
   <v>       0.00432900 </v>
   <v>       0.00432900 </v>
   <v>       0.00432900 </v>
   <v>       0.00432900 </v>
   <v>       0.00432900 </v>
   <v>       0.00432900 </v>
   <v>       0.00432900 </v>
   <v>       0.00432900 </v>
   <v>       0.00432900 </v>
   <v>       0.00432900 </v>
   <v>       0.00432900 </v>
   <v>       0.00432900 </v>
   <v>       0.00432900 </v>
   <v>       0.00432900 </v>
   <v>       0.00432900 </v>
   <v>       0.00432900 </v>
   <v>       0.00432900 </v>
   <v>       0.00432900 </v>
   <v>       0.00432900 </v>
   <v>       0.00432900 </v>
   <v>       0.00432900 </v>
   <v>       0.00432900 </v>
   <v>       0.00432900 </v>
   <v>       0.00432900 </v>
   <v>       0.00432900 </v>
   <v>       0.00432900 </v>
   <v>       0.00432900 </v>
   <v>       0.00432900 </v>
   <v>       0.00432900 </v>
   <v>       0.00432900 </v>
   <v>       0.00432900 </v>
   <v>       0.00432900 </v>
   <v>       0.00432900 </v>
   <v>       0.00432900 </v>
   <v>       0.00432900 </v>
   <v>       0.00432900 </v>
   <v>       0.00432900 </v>
   <v>       0.00432900 </v>
   <v>       0.00432900 </v>
   <v>       0.00432900 </v>
   <v>       0.00432900 </v>
   <v>       0.00432900 </v>
   <v>       0.00432900 </v>
   <v>       0.00432900 </v>
   <v>       0.00432900 </v>
   <v>       0.00432900 </v>
   <v>       0.00432900 </v>
   <v>       0.00432900 </v>
   <v>       0.00432900 </v>
   <v>       0.00432900 </v>
   <v>       0.00432900 </v>
   <v>       0.00432900 </v>
   <v>       0.00432900 </v>
   <v>       0.00432900 </v>
   <v>       0.00432900 </v>
   <v>       0.00432900 </v>
   <v>       0.00432900 </v>
   <v>       0.00432900 </v>
   <v>       0.00432900 </v>
   <v>       0.00432900 </v>
   <v>       0.00432900 </v>
   <v>       0.00432900 </v>
   <v>       0.00432900 </v>
   <v>       0.00432900 </v>
   <v>       0.00432900 </v>
   <v>       0.00432900 </v>
   <v>       0.00432900 </v>
   <v>       0.00432900 </v>
   <v>       0.00432900 </v>
   <v>       0.00432900 </v>
   <v>       0.00432900 </v>
   <v>       0.00432900 </v>
   <v>       0.00432900 </v>
   <v>       0.00432900 </v>
   <v>       0.00432900 </v>
   <v>       0.00432900 </v>
   <v>       0.00432900 </v>
   <v>       0.00432900 </v>
   <v>       0.00432900 </v>
   <v>       0.00432900 </v>
   <v>       0.00432900 </v>
   <v>       0.00432900 </v>
   <v>       0.00432900 </v>
   <v>       0.00432900 </v>
   <v>       0.00432900 </v>
   <v>       0.00432900 </v>
   <v>       0.00432900 </v>
   <v>       0.00432900 </v>
   <v>       0.00432900 </v>
   <v>       0.00432900 </v>
   <v>       0.00432900 </v>
   <v>       0.00432900 </v>
   <v>       0.00432900 </v>
   <v>       0.00432900 </v>
   <v>       0.00432900 </v>
   <v>       0.00432900 </v>
   <v>       0.00432900 </v>
   <v>       0.00432900 </v>
   <v>       0.00432900 </v>
   <v>       0.00432900 </v>
   <v>       0.00432900 </v>
   <v>       0.00432900 </v>
   <v>       0.00432900 </v>
   <v>       0.00432900 </v>
   <v>       0.00432900 </v>
   <v>       0.00432900 </v>
   <v>       0.00432900 </v>
   <v>       0.00432900 </v>
   <v>       0.00432900 </v>
   <v>       0.00432900 </v>
   <v>       0.00432900 </v>
   <v>       0.00432900 </v>
   <v>       0.00432900 </v>
   <v>       0.00432900 </v>
   <v>       0.00432900 </v>
   <v>       0.00432900 </v>
   <v>       0.00432900 </v>
   <v>       0.00432900 </v>
   <v>       0.00432900 </v>
   <v>       0.00432900 </v>
   <v>       0.00432900 </v>
   <v>       0.00432900 </v>
   <v>       0.00432900 </v>
   <v>       0.00432900 </v>
   <v>       0.00432900 </v>
   <v>       0.00432900 </v>
   <v>       0.00432900 </v>
   <v>       0.00432900 </v>
   <v>       0.00432900 </v>
   <v>       0.00432900 </v>
   <v>       0.00432900 </v>
   <v>       0.00432900 </v>
   <v>       0.00432900 </v>
   <v>       0.00432900 </v>
   <v>       0.00432900 </v>
   <v>       0.00432900 </v>
   <v>       0.00432900 </v>
   <v>       0.00432900 </v>
   <v>       0.00432900 </v>
   <v>       0.00432900 </v>
   <v>       0.00432900 </v>
   <v>       0.00432900 </v>
   <v>       0.00432900 </v>
   <v>       0.00432900 </v>
   <v>       0.00432900 </v>
   <v>       0.00432900 </v>
   <v>       0.00432900 </v>
   <v>       0.00432900 </v>
   <v>       0.00432900 </v>
   <v>       0.00432900 </v>
   <v>       0.00432900 </v>
   <v>       0.00432900 </v>
   <v>       0.00432900 </v>
   <v>       0.00432900 </v>
   <v>       0.00432900 </v>
   <v>       0.00432900 </v>
   <v>       0.00432900 </v>
   <v>       0.00432900 </v>
   <v>       0.00432900 </v>
   <v>       0.00432900 </v>
   <v>       0.00432900 </v>
   <v>       0.00432900 </v>
   <v>       0.00432900 </v>
   <v>       0.00432900 </v>
   <v>       0.00432900 </v>
   <v>       0.00432900 </v>
   <v>       0.00432900 </v>
   <v>       0.00432900 </v>
   <v>       0.00432900 </v>
   <v>       0.00432900 </v>
   <v>       0.00432900 </v>
   <v>       0.00432900 </v>
   <v>       0.00432900 </v>
   <v>       0.00432900 </v>
   <v>       0.00432900 </v>
   <v>       0.00432900 </v>
   <v>       0.00432900 </v>
   <v>       0.00432900 </v>
   <v>       0.00432900 </v>
   <v>       0.00432900 </v>
   <v>       0.00432900 </v>
   <v>       0.00432900 </v>
   <v>       0.00432900 </v>
   <v>       0.00432900 </v>
   <v>       0.00432900 </v>
   <v>       0.00432900 </v>
   <v>       0.00432900 </v>
   <v>       0.00432900 </v>
   <v>       0.00432900 </v>
   <v>       0.00432900 </v>
   <v>       0.00432900 </v>
   <v>       0.00432900 </v>
   <v>       0.00432900 </v>
   <v>       0.00432900 </v>
   <v>       0.00432900 </v>
  </varray>
 </kpoints>
 <parameters>
  <separator name="general" >
   <i type="string" name="SYSTEM">unknown system</i>
   <i type="logical" name="LCOMPAT"> F  </i>
  </separator>
  <separator name="electronic" >
   <i type="string" name="PREC">accura</i>
   <i name="ENMAX">    500.00000000</i>
   <i name="ENAUG">    322.06900000</i>
   <i name="EDIFF">      0.00000001</i>
   <i type="int" name="IALGO">    38</i>
   <i type="int" name="IWAVPR">    10</i>
   <i type="int" name="NBANDS">    24</i>
   <i type="int" name="NBANDSLOW">    -1</i>
   <i type="int" name="NBANDSHIGH">    -1</i>
   <i name="NELECT">     32.00000000</i>
   <i type="int" name="TURBO">     0</i>
   <i type="int" name="IRESTART">     0</i>
   <i type="int" name="NREBOOT">     0</i>
   <i type="int" name="NMIN">     0</i>
   <i name="EREF">      0.00000000</i>
   <separator name="electronic smearing" >
    <i type="int" name="ISMEAR">     0</i>
    <i name="SIGMA">      0.01000000</i>
    <i name="KSPACING">      0.50000000</i>
    <i type="logical" name="KGAMMA"> T  </i>
    <i type="logical" name="KBLOWUP"> F  </i>
   </separator>
   <separator name="electronic projectors" >
    <i type="logical" name="LREAL"> F  </i>
    <v name="ROPT">      0.00000000</v>
    <i type="int" name="LMAXPAW">  -100</i>
    <i type="int" name="LMAXMIX">     2</i>
    <i type="logical" name="NLSPLINE"> F  </i>
   </separator>
   <separator name="electronic startup" >
    <i type="int" name="ISTART">     0</i>
    <i type="int" name="ICHARG">     2</i>
    <i type="int" name="INIWAV">     1</i>
   </separator>
   <separator name="electronic spin" >
    <i type="int" name="ISPIN">     1</i>
    <i type="logical" name="LNONCOLLINEAR"> F  </i>
    <v name="MAGMOM">      1.00000000      1.00000000      1.00000000      1.00000000      1.00000000      1.00000000      1.00000000      1.00000000</v>
    <i name="NUPDOWN">     -1.00000000</i>
    <i type="logical" name="LSORBIT"> F  </i>
    <v name="SAXIS">      0.00000000      0.00000000      1.00000000</v>
    <i type="logical" name="LSPIRAL"> F  </i>
    <v name="QSPIRAL">      0.00000000      0.00000000      0.00000000</v>
    <i type="logical" name="LZEROZ"> F  </i>
   </separator>
   <separator name="electronic exchange-correlation" >
    <i type="logical" name="LASPH"> F  </i>
   </separator>
   <separator name="electronic convergence" >
    <i type="int" name="NELM">    60</i>
    <i type="int" name="NELMDL">    -5</i>
    <i type="int" name="NELMIN">     2</i>
    <i name="ENINI">    500.00000000</i>
    <separator name="electronic convergence detail" >
     <i type="logical" name="LDIAG"> T  </i>
     <i type="logical" name="LSUBROT"> F  </i>
     <i name="WEIMIN">      0.00000000</i>
     <i name="EBREAK">      0.00000000</i>
     <i name="DEPER">      0.30000000</i>
     <i type="int" name="NRMM">     4</i>
     <i name="TIME">      0.40000000</i>
    </separator>
   </separator>
   <separator name="electronic mixer" >
    <i name="AMIX">      0.40000000</i>
    <i name="BMIX">      1.00000000</i>
    <i name="AMIN">      0.10000000</i>
    <i name="AMIX_MAG">      1.60000000</i>
    <i name="BMIX_MAG">      1.00000000</i>
    <separator name="electronic mixer details" >
     <i type="int" name="IMIX">     4</i>
     <i type="logical" name="MIXFIRST"> F  </i>
     <i type="int" name="MAXMIX">   -45</i>
     <i name="WC">    100.00000000</i>
     <i type="int" name="INIMIX">     1</i>
     <i type="int" name="MIXPRE">     1</i>
     <i type="int" name="MREMOVE">     5</i>
    </separator>
   </separator>
   <separator name="electronic dipolcorrection" >
    <i type="logical" name="LDIPOL"> F  </i>
    <i type="logical" name="LMONO"> F  </i>
    <i type="int" name="IDIPOL">     0</i>
    <i name="EPSILON">      1.00000000</i>
    <v name="DIPOL">   -100.00000000   -100.00000000   -100.00000000</v>
    <i name="EFIELD">      0.00000000</i>
    <i type="logical" name="LVACPOTAV"> F  </i>
   </separator>
  </separator>
  <separator name="grids" >
   <i type="int" name="NGX">    50</i>
   <i type="int" name="NGY">    50</i>
   <i type="int" name="NGZ">    28</i>
   <i type="int" name="NGXF">   100</i>
   <i type="int" name="NGYF">   100</i>
   <i type="int" name="NGZF">    56</i>
   <i type="logical" name="ADDGRID"> F  </i>
  </separator>
  <separator name="ionic" >
   <i type="int" name="NSW">     0</i>
   <i type="int" name="IBRION">    -1</i>
   <i type="int" name="MDALGO">     0</i>
   <i type="int" name="ISIF">     2</i>
   <i name="PSTRESS">      0.00000000</i>
   <i name="EDIFFG">      0.00000010</i>
   <i type="int" name="NFREE">     0</i>
   <i name="POTIM">      0.50000000</i>
   <i name="SMASS">     -3.00000000</i>
   <i name="SCALEE">      1.00000000</i>
  </separator>
  <separator name="ionic md" >
   <i name="TEBEG">      0.00010000</i>
   <i name="TEEND">      0.00010000</i>
   <i type="int" name="NBLOCK">     1</i>
   <i type="int" name="KBLOCK">     1</i>
   <i type="int" name="NPACO">   256</i>
   <i name="APACO">     10.00000000</i>
  </separator>
  <separator name="symmetry" >
   <i type="int" name="ISYM">     2</i>
   <i name="SYMPREC">      0.00001000</i>
  </separator>
  <separator name="dos" >
   <i type="int" name="LORBIT">     0</i>
   <v name="RWIGS">     -1.00000000</v>
   <i type="int" name="NEDOS">   301</i>
   <i name="EMIN">     10.00000000</i>
   <i name="EMAX">    -10.00000000</i>
   <i name="EFERMI">      0.00000000</i>
  </separator>
  <separator name="writing" >
   <i type="int" name="NWRITE">     2</i>
   <i type="logical" name="LWAVE"> F  </i>
   <i type="logical" name="LDOWNSAMPLE"> F  </i>
   <i type="logical" name="LCHARG"> F  </i>
   <i type="logical" name="LPARD"> F  </i>
   <i type="logical" name="LVTOT"> F  </i>
   <i type="logical" name="LVHAR"> F  </i>
   <i type="logical" name="LELF"> F  </i>
   <i type="logical" name="LOPTICS"> F  </i>
   <v name="STM">      0.00000000      0.00000000      0.00000000      0.00000000      0.00000000      0.00000000      0.00000000</v>
  </separator>
  <separator name="performance" >
   <i type="int" name="NPAR">     8</i>
   <i type="int" name="NSIM">     4</i>
   <i type="int" name="NBLK">    -1</i>
   <i type="logical" name="LPLANE"> T  </i>
   <i type="logical" name="LSCALAPACK"> T  </i>
   <i type="logical" name="LSCAAWARE"> F  </i>
   <i type="logical" name="LSCALU"> F  </i>
   <i type="logical" name="LASYNC"> F  </i>
   <i type="logical" name="LORBITALREAL"> F  </i>
  </separator>
  <separator name="miscellaneous" >
   <i type="int" name="IDIOT">     3</i>
   <i type="int" name="PHON_NSTRUCT">    -1</i>
   <i type="logical" name="LMUSIC"> F  </i>
   <v name="POMASS">     28.08500000</v>
   <v name="DARWINR">      0.00000000</v>
   <v name="DARWINV">      1.00000000</v>
   <i type="logical" name="LCORR"> T  </i>
  </separator>
  <i type="logical" name="GGA_COMPAT"> T  </i>
  <i type="logical" name="LBERRY"> F  </i>
  <i type="int" name="ICORELEVEL">     0</i>
  <i type="logical" name="LDAU"> F  </i>
  <i type="int" name="I_CONSTRAINED_M">     0</i>
  <separator name="electronic exchange-correlation" >
   <i type="string" name="GGA    ">PE</i>
   <i type="string" name="XC_C">1</i>
   <i type="int" name="VOSKOWN">     0</i>
   <i type="logical" name="LHFCALC"> F  </i>
   <i type="string" name="PRECFOCK"></i>
   <i type="logical" name="LSYMGRAD"> F  </i>
   <i type="logical" name="LHFONE"> F  </i>
   <i type="logical" name="LRHFCALC"> F  </i>
   <i type="logical" name="LTHOMAS"> F  </i>
   <i type="logical" name="LMODELHF"> F  </i>
   <i type="logical" name="LFOCKACE"> F  </i>
   <i name="ENCUT4O">     -1.00000000</i>
   <i type="int" name="EXXOEP">     0</i>
   <i type="int" name="FOURORBIT">     0</i>
   <i name="AEXX">      0.00000000</i>
   <i name="HFALPHA">      0.00000000</i>
   <i name="MCALPHA">      0.00000000</i>
   <i name="ALDAX">      1.00000000</i>
   <i name="AGGAX">      1.00000000</i>
   <i name="AMGGAX">      1.00000000</i>
   <i name="ALDAC">      1.00000000</i>
   <i name="AGGAC">      1.00000000</i>
   <i name="AMGGAC">      1.00000000</i>
   <i type="int" name="NKREDX">     1</i>
   <i type="int" name="NKREDY">     1</i>
   <i type="int" name="NKREDZ">     1</i>
   <i type="logical" name="SHIFTRED"> F  </i>
   <i type="logical" name="ODDONLY"> F  </i>
   <i type="logical" name="EVENONLY"> F  </i>
   <i type="int" name="LMAXFOCK">     0</i>
   <i type="int" name="NMAXFOCKAE">     0</i>
   <i type="logical" name="LFOCKAEDFT"> F  </i>
   <i name="HFSCREEN">      0.00000000</i>
   <i name="HFSCREENC">      0.00000000</i>
   <i type="int" name="NBANDSGWLOW">     0</i>
  </separator>
  <separator name="vdW DFT" >
   <i type="logical" name="LUSE_VDW"> F  </i>
   <i type="int" name="IVDW_NL">    -1</i>
   <i type="logical" name="LSPIN_VDW"> F  </i>
   <i name="ZAB_VDW">     -0.84910000</i>
   <i name="GAMMA_VDW">      1.39626340</i>
   <i name="ALPHA_VDW">      0.00000000</i>
   <i name="PARAM1">      0.12340000</i>
   <i name="PARAM2">      1.00000000</i>
   <i name="BPARAM">      6.30000000</i>
   <i name="CPARAM">      0.00930000</i>
  </separator>
  <separator name="model GW" >
   <i type="int" name="MODEL_GW">     0</i>
   <i name="MODEL_EPS0">     12.09885805</i>
   <i name="MODEL_ALPHA">      1.00000000</i>
  </separator>
  <separator name="linear response parameters" >
   <i type="logical" name="LEPSILON"> F  </i>
   <i type="logical" name="LRPA"> F  </i>
   <i type="logical" name="LNABLA"> F  </i>
   <i type="logical" name="LVEL"> F  </i>
   <i name="CSHIFT">      0.10000000</i>
   <i name="OMEGAMAX">     -1.00000000</i>
   <i name="DEG_THRESHOLD">      0.00200000</i>
   <i name="RTIME">     -0.10000000</i>
   <i name="WPLASMAI">      0.00000000</i>
   <v name="DFIELD">      0.00000000      0.00000000      0.00000000</v>
   <v name="WPLASMA">      0.00000000      0.00000000      0.00000000      0.00000000      0.00000000      0.00000000      0.00000000      0.00000000      0.00000000</v>
  </separator>
  <separator name="orbital magnetization" >
   <i type="logical" name="NUCIND"> F  </i>
   <v name="MAGPOS">      0.00000000      0.00000000      0.00000000</v>
   <i type="logical" name="LNICSALL"> T  </i>
   <i type="logical" name="ORBITALMAG"> F  </i>
   <i type="logical" name="LMAGBLOCH"> F  </i>
   <i type="logical" name="LCHIMAG"> F  </i>
   <i type="logical" name="LGAUGE"> T  </i>
   <i type="int" name="MAGATOM">     0</i>
   <v name="MAGDIPOL">      0.00000000      0.00000000      0.00000000</v>
   <v name="AVECCONST">      0.00000000      0.00000000      0.00000000</v>
  </separator>
  <separator name="response functions" >
   <i type="logical" name="LALL_IN_ONE"> F  </i>
   <i type="int" name="IALL_IN_ONE">    -1</i>
   <i type="int" name="NBANDS_WAVE">    -1</i>
   <i type="logical" name="LFINITE_TEMPERATURE"> F  </i>
   <i type="logical" name="LADDER"> F  </i>
   <i type="logical" name="LRPAFORCE"> F  </i>
   <i type="logical" name="LFXC"> F  </i>
   <i type="logical" name="LHARTREE"> T  </i>
   <i type="int" name="IBSE">     0</i>
   <v type="int" name="KPOINT">    -1     0     0     0</v>
   <i type="logical" name="LTCTC"> F  </i>
   <i type="logical" name="LTCTE"> F  </i>
   <i type="logical" name="LTETE"> F  </i>
   <i type="logical" name="LTRIPLET"> F  </i>
   <i type="logical" name="LFXCEPS"> F  </i>
   <i type="logical" name="LFXHEG"> F  </i>
   <i type="int" name="NATURALO">     2</i>
   <i type="logical" name="LHOLEGF"> F  </i>
   <i type="logical" name="L2ORDER"> F  </i>
   <i type="logical" name="LDMP1"> F  </i>
   <i type="logical" name="LMP2LT"> F  </i>
   <i type="logical" name="LSMP2LT"> F  </i>
   <i type="logical" name="LGWLF"> F  </i>
   <i name="ENCUTGW">     -1.60000002</i>
   <i name="ENCUTGWSOFT">     -1.60000002</i>
   <i name="ENCUTLF">     -1.00000000</i>
   <i type="logical" name="ESF_SPLINES"> F  </i>
   <i name="ESF_CONV">      0.01000000</i>
   <i type="int" name="ESF_NINTER">    15</i>
   <i type="int" name="LMAXMP2">    -1</i>
   <i name="SCISSOR">      0.00000000</i>
   <i type="int" name="NOMEGA">     0</i>
   <i type="int" name="NOMEGAR">     0</i>
   <i type="int" name="NBANDSGW">    -1</i>
   <i type="int" name="NBANDSO">    -1</i>
   <i type="int" name="NBANDSV">    -1</i>
   <i type="int" name="NELMGW">     1</i>
   <i type="int" name="NELMHF">     1</i>
   <i type="int" name="DIM">     3</i>
   <i type="int" name="IESPILON">     4</i>
   <i type="int" name="ANTIRES">     0</i>
   <i name="OMEGAMAX">    -30.00000000</i>
   <i name="OMEGAMIN">    -30.00000000</i>
   <i name="OMEGATL">   -200.00000000</i>
   <i type="int" name="OMEGAGRID">     0</i>
   <i name="CSHIFT">     -0.10000000</i>
   <i type="logical" name="LSELFENERGY"> F  </i>
   <i type="logical" name="LSPECTRAL"> F  </i>
   <i type="logical" name="LSPECTRALGW"> F  </i>
   <i type="logical" name="LSINGLES"> F  </i>
   <i type="logical" name="LFERMIGW"> F  </i>
   <i type="logical" name="ODDONLYGW"> F  </i>
   <i type="logical" name="EVENONLYGW"> F  </i>
   <i type="int" name="NKREDLFX">     1</i>
   <i type="int" name="NKREDLFY">     1</i>
   <i type="int" name="NKREDLFZ">     1</i>
   <i type="int" name="MAXMEM">  2800</i>
   <i type="int" name="TELESCOPE">     0</i>
   <i type="int" name="NTAUPAR">    -1</i>
   <i type="int" name="NOMEGAPAR">    -1</i>
   <i name="DAMP_NEWTON">      0.80000001</i>
   <i name="LAMBDA">      1.00000000</i>
  </separator>
  <separator name="External order field" >
   <i name="OFIELD_KAPPA">      0.00000000</i>
   <v name="OFIELD_K">      0.00000000      0.00000000      0.00000000</v>
   <i name="OFIELD_Q6_NEAR">      0.00000000</i>
   <i name="OFIELD_Q6_FAR">      0.00000000</i>
   <i name="OFIELD_A">      0.00000000</i>
  </separator>
  <separator name="optional k-points parameters" >
   <i type="int" name="KPOINTS_OPT_MODE">     1</i>
   <i type="logical" name="LKPOINTS_OPT"> F  </i>
  </separator>
 </parameters>
 <atominfo>
  <atoms>       8 </atoms>
  <types>       1 </types>
  <array name="atoms" >
   <dimension dim="1">ion</dimension>
   <field type="string">element</field>
   <field type="int">atomtype</field>
   <set>
    <rc><c>Si</c><c>   1</c></rc>
    <rc><c>Si</c><c>   1</c></rc>
    <rc><c>Si</c><c>   1</c></rc>
    <rc><c>Si</c><c>   1</c></rc>
    <rc><c>Si</c><c>   1</c></rc>
    <rc><c>Si</c><c>   1</c></rc>
    <rc><c>Si</c><c>   1</c></rc>
    <rc><c>Si</c><c>   1</c></rc>
   </set>
  </array>
  <array name="atomtypes" >
   <dimension dim="1">type</dimension>
   <field type="int">atomspertype</field>
   <field type="string">element</field>
   <field>mass</field>
   <field>valence</field>
   <field type="string">pseudopotential</field>
   <set>
    <rc><c>   8</c><c>Si</c><c>     28.08500000</c><c>      4.00000000</c><c>  PAW_PBE Si 05Jan2001                  </c></rc>
   </set>
  </array>
 </atominfo>
 <structure name="initialpos" >
  <crystal>
   <varray name="basis" >
    <v>      -2.72185119       2.72185119       5.44370237 </v>
    <v>       2.72185119      -5.44370237       2.72185119 </v>
    <v>       2.72185119       2.72185119       0.00000000 </v>
   </varray>
   <i name="volume">    161.31810740 </i>
   <varray name="rec_basis" >
    <v>      -0.04592463       0.04592463       0.13777388 </v>
    <v>       0.09184925      -0.09184925       0.09184925 </v>
    <v>       0.22962313       0.13777388       0.04592463 </v>
   </varray>
  </crystal>
  <varray name="positions" >
   <v>       0.00149989       0.00000000       0.00000000 </v>
   <v>       0.50000000       0.00000000       0.50000000 </v>
   <v>       0.25000000       0.50000000       0.75000000 </v>
   <v>       0.75000000       0.50000000       0.25000000 </v>
   <v>       0.18750000       0.12500000       0.56250000 </v>
   <v>       0.68750000       0.12500000       0.06250000 </v>
   <v>       0.43750000       0.62500000       0.31250000 </v>
   <v>       0.93750000       0.62500000       0.81250000 </v>
  </varray>
 </structure>
 <calculation>
  <scstep>
   <time name="dav">    1.20    1.20</time>
   <time name="total">    1.22    1.22</time>
   <energy>
    <i name="alphaZ">     13.35522965 </i>
    <i name="ewald">   -911.95042027 </i>
    <i name="hartreedc">    -44.46073179 </i>
    <i name="XCdc">    -74.52612231 </i>
    <i name="pawpsdc">    704.99039692 </i>
    <i name="pawaedc">   -564.24414232 </i>
    <i name="eentropy">     -0.00011523 </i>
    <i name="bandstr">    119.31765857 </i>
    <i name="atom">    824.53005375 </i>
    <i name="e_fr_energy">     67.01180697 </i>
    <i name="e_wo_entrp">     67.01192220 </i>
    <i name="e_0_energy">     67.01186458 </i>
   </energy>
  </scstep>
  <scstep>
   <time name="dav">    1.42    1.43</time>
   <time name="total">    1.42    1.43</time>
   <energy>
    <i name="e_fr_energy">    -38.87559198 </i>
    <i name="e_wo_entrp">    -38.87559198 </i>
    <i name="e_0_energy">    -38.87559198 </i>
   </energy>
  </scstep>
  <scstep>
   <time name="dav">    1.43    1.44</time>
   <time name="total">    1.43    1.44</time>
   <energy>
    <i name="e_fr_energy">    -44.00025241 </i>
    <i name="e_wo_entrp">    -44.00025241 </i>
    <i name="e_0_energy">    -44.00025241 </i>
   </energy>
  </scstep>
  <scstep>
   <time name="dav">    1.37    1.37</time>
   <time name="total">    1.37    1.38</time>
   <energy>
    <i name="e_fr_energy">    -44.09107936 </i>
    <i name="e_wo_entrp">    -44.09107936 </i>
    <i name="e_0_energy">    -44.09107936 </i>
   </energy>
  </scstep>
  <scstep>
   <time name="dav">    1.44    1.45</time>
   <time name="total">    1.49    1.50</time>
   <energy>
    <i name="e_fr_energy">    -44.09343465 </i>
    <i name="e_wo_entrp">    -44.09343465 </i>
    <i name="e_0_energy">    -44.09343465 </i>
   </energy>
  </scstep>
  <scstep>
   <time name="dav">    1.33    1.33</time>
   <time name="total">    1.40    1.41</time>
   <energy>
    <i name="e_fr_energy">    -43.60683683 </i>
    <i name="e_wo_entrp">    -43.60683683 </i>
    <i name="e_0_energy">    -43.60683683 </i>
   </energy>
  </scstep>
  <scstep>
   <time name="dav">    1.34    1.34</time>
   <time name="total">    1.43    1.43</time>
   <energy>
    <i name="e_fr_energy">    -43.38494282 </i>
    <i name="e_wo_entrp">    -43.38494282 </i>
    <i name="e_0_energy">    -43.38494282 </i>
   </energy>
  </scstep>
  <scstep>
   <time name="dav">    1.37    1.37</time>
   <time name="total">    1.44    1.45</time>
   <energy>
    <i name="e_fr_energy">    -43.38895366 </i>
    <i name="e_wo_entrp">    -43.38895366 </i>
    <i name="e_0_energy">    -43.38895366 </i>
   </energy>
  </scstep>
  <scstep>
   <time name="dav">    1.42    1.42</time>
   <time name="total">    1.49    1.49</time>
   <energy>
    <i name="e_fr_energy">    -43.38979005 </i>
    <i name="e_wo_entrp">    -43.38979005 </i>
    <i name="e_0_energy">    -43.38979005 </i>
   </energy>
  </scstep>
  <scstep>
   <time name="dav">    1.34    1.34</time>
   <time name="total">    1.41    1.41</time>
   <energy>
    <i name="e_fr_energy">    -43.39001906 </i>
    <i name="e_wo_entrp">    -43.39001906 </i>
    <i name="e_0_energy">    -43.39001906 </i>
   </energy>
  </scstep>
  <scstep>
   <time name="dav">    1.42    1.42</time>
   <time name="total">    1.49    1.50</time>
   <energy>
    <i name="e_fr_energy">    -43.39001810 </i>
    <i name="e_wo_entrp">    -43.39001810 </i>
    <i name="e_0_energy">    -43.39001810 </i>
   </energy>
  </scstep>
  <scstep>
   <time name="dav">    1.38    1.38</time>
   <time name="total">    1.45    1.45</time>
   <energy>
    <i name="e_fr_energy">    -43.39001940 </i>
    <i name="e_wo_entrp">    -43.39001940 </i>
    <i name="e_0_energy">    -43.39001940 </i>
   </energy>
  </scstep>
  <scstep>
   <time name="dav">    1.41    1.41</time>
   <time name="total">    1.48    1.48</time>
   <energy>
    <i name="e_fr_energy">    -43.39001916 </i>
    <i name="e_wo_entrp">    -43.39001916 </i>
    <i name="e_0_energy">    -43.39001916 </i>
   </energy>
  </scstep>
  <scstep>
   <time name="dav">    1.25    1.26</time>
   <time name="total">    1.32    1.33</time>
   <energy>
    <i name="e_fr_energy">    -43.39001920 </i>
    <i name="e_wo_entrp">    -43.39001920 </i>
    <i name="e_0_energy">    -43.39001920 </i>
   </energy>
  </scstep>
  <scstep>
   <time name="dav">    1.12    1.12</time>
   <time name="total">    1.20    1.20</time>
   <energy>
    <i name="e_fr_energy">    -43.39001917 </i>
    <i name="e_wo_entrp">    -43.39001917 </i>
    <i name="e_0_energy">    -43.39001917 </i>
   </energy>
  </scstep>
  <scstep>
   <time name="dav">    1.09    1.09</time>
   <time name="total">    1.11    1.11</time>
   <energy>
    <i name="alphaZ">     13.35522965 </i>
    <i name="ewald">   -911.95042027 </i>
    <i name="hartreedc">    -60.02817219 </i>
    <i name="XCdc">    -71.99036043 </i>
    <i name="pawpsdc">   3421.43990100 </i>
    <i name="pawaedc">  -3281.56313118 </i>
    <i name="eentropy">     -0.00000000 </i>
    <i name="bandstr">     22.81688050 </i>
    <i name="atom">    824.53005375 </i>
    <i name="e_fr_energy">    -43.39001918 </i>
    <i name="e_wo_entrp">    -43.39001918 </i>
    <i name="e_0_energy">    -43.39001918 </i>
   </energy>
  </scstep>
  <structure>
   <crystal>
    <varray name="basis" >
     <v>      -2.72185119       2.72185119       5.44370237 </v>
     <v>       2.72185119      -5.44370237       2.72185119 </v>
     <v>       2.72185119       2.72185119       0.00000000 </v>
    </varray>
    <i name="volume">    161.31810740 </i>
    <varray name="rec_basis" >
     <v>      -0.04592463       0.04592463       0.13777388 </v>
     <v>       0.09184925      -0.09184925       0.09184925 </v>
     <v>       0.22962313       0.13777388       0.04592463 </v>
    </varray>
   </crystal>
   <varray name="positions" >
    <v>       0.00149989       0.00000000       0.00000000 </v>
    <v>       0.50000000       0.00000000       0.50000000 </v>
    <v>       0.25000000       0.50000000       0.75000000 </v>
    <v>       0.75000000       0.50000000       0.25000000 </v>
    <v>       0.18750000       0.12500000       0.56250000 </v>
    <v>       0.68750000       0.12500000       0.06250000 </v>
    <v>       0.43750000       0.62500000       0.31250000 </v>
    <v>       0.93750000       0.62500000       0.81250000 </v>
   </varray>
  </structure>
  <varray name="forces" >
   <v>       0.05267223      -0.05267223      -0.11468683 </v>
   <v>      -0.00042508       0.00042508       0.00862107 </v>
   <v>      -0.00090256       0.00090256      -0.00283213 </v>
   <v>       0.00221909      -0.00221909       0.00029845 </v>
   <v>      -0.00833226       0.00833226       0.05805892 </v>
   <v>      -0.04149316       0.04149316       0.04291333 </v>
   <v>      -0.00001951       0.00001951       0.00043383 </v>
   <v>      -0.00371875       0.00371875       0.00719336 </v>
  </varray>
  <varray name="stress" >
   <v>      12.54570552       0.78769636       0.38257828 </v>
   <v>       0.78769636      12.54570552      -0.38257828 </v>
   <v>       0.38257828      -0.38257828      12.51009398 </v>
  </varray>
  <energy>
   <i name="e_fr_energy">    -43.39001918 </i>
   <i name="e_wo_entrp">    -43.39001918 </i>
   <i name="e_0_energy">    -43.39001918 </i>
  </energy>
  <time name="totalsc">   23.04   23.15</time>
  <eigenvalues>
   <array>
    <dimension dim="1">band</dimension>
    <dimension dim="2">kpoint</dimension>
    <dimension dim="3">spin</dimension>
    <field>eigene</field>
    <field>occ</field>
    <set>
     <set comment="spin 1">
      <set comment="kpoint 1">
       <r>   -6.1549    1.0000 </r>
       <r>   -3.8420    1.0000 </r>
       <r>   -3.4642    1.0000 </r>
       <r>   -3.4523    1.0000 </r>
       <r>   -1.1786    1.0000 </r>
       <r>   -0.6090    1.0000 </r>
       <r>   -0.5887    1.0000 </r>
       <r>    2.2402    1.0000 </r>
       <r>    2.2505    1.0000 </r>
       <r>    3.5579    1.0000 </r>
       <r>    3.5657    1.0000 </r>
       <r>    4.5551    1.0000 </r>
       <r>    4.5706    1.0000 </r>
       <r>    5.7436    1.0000 </r>
       <r>    5.7497    1.0000 </r>
       <r>    5.7668    1.0000 </r>
       <r>    7.2664    0.0000 </r>
       <r>    7.2745    0.0000 </r>
       <r>    7.2816    0.0000 </r>
       <r>    8.3082    0.0000 </r>
       <r>    8.3182    0.0000 </r>
       <r>    8.3219    0.0000 </r>
       <r>    9.0445    0.0000 </r>
       <r>    9.0883    0.0000 </r>
      </set>
      <set comment="kpoint 2">
       <r>   -6.0719    1.0000 </r>
       <r>   -4.1887    1.0000 </r>
       <r>   -3.7726    1.0000 </r>
       <r>   -2.9003    1.0000 </r>
       <r>   -1.1225    1.0000 </r>
       <r>   -1.0935    1.0000 </r>
       <r>    0.2691    1.0000 </r>
       <r>    1.6393    1.0000 </r>
       <r>    2.9904    1.0000 </r>
       <r>    3.5420    1.0000 </r>
       <r>    3.7206    1.0000 </r>
       <r>    3.9273    1.0000 </r>
       <r>    4.4382    1.0000 </r>
       <r>    5.0859    1.0000 </r>
       <r>    5.4830    1.0000 </r>
       <r>    5.5919    1.0000 </r>
       <r>    7.2120    0.0000 </r>
       <r>    7.4800    0.0000 </r>
       <r>    7.7817    0.0000 </r>
       <r>    8.2346    0.0000 </r>
       <r>    8.5665    0.0000 </r>
       <r>    8.6720    0.0000 </r>
       <r>    9.0580    0.0000 </r>
       <r>    9.3895    0.0000 </r>
      </set>
      <set comment="kpoint 3">
       <r>   -5.8246    1.0000 </r>
       <r>   -4.8644    1.0000 </r>
       <r>   -3.5698    1.0000 </r>
       <r>   -2.9176    1.0000 </r>
       <r>   -0.9887    1.0000 </r>
       <r>   -0.9784    1.0000 </r>
       <r>    1.3367    1.0000 </r>
       <r>    1.3800    1.0000 </r>
       <r>    2.7874    1.0000 </r>
       <r>    3.6535    1.0000 </r>
       <r>    3.7718    1.0000 </r>
       <r>    3.8362    1.0000 </r>
       <r>    4.0169    1.0000 </r>
       <r>    4.1677    1.0000 </r>
       <r>    4.9609    1.0000 </r>
       <r>    5.1515    1.0000 </r>
       <r>    7.3233    0.0000 </r>
       <r>    7.7171    0.0000 </r>
       <r>    7.9329    0.0000 </r>
       <r>    8.0638    0.0000 </r>
       <r>    8.9573    0.0000 </r>
       <r>    9.4258    0.0000 </r>
       <r>    9.8016    0.0000 </r>
       <r>    9.8120    0.0000 </r>
      </set>
      <set comment="kpoint 4">
       <r>   -5.4251    1.0000 </r>
       <r>   -5.4113    1.0000 </r>
       <r>   -3.2626    1.0000 </r>
       <r>   -3.2480    1.0000 </r>
       <r>   -0.8611    1.0000 </r>
       <r>   -0.8576    1.0000 </r>
       <r>    1.7927    1.0000 </r>
       <r>    1.7979    1.0000 </r>
       <r>    2.5378    1.0000 </r>
       <r>    2.5498    1.0000 </r>
       <r>    3.8684    1.0000 </r>
       <r>    3.8844    1.0000 </r>
       <r>    4.4327    1.0000 </r>
       <r>    4.4502    1.0000 </r>
       <r>    4.5149    1.0000 </r>
       <r>    4.5180    1.0000 </r>
       <r>    7.5904    0.0000 </r>
       <r>    7.6043    0.0000 </r>
       <r>    7.8967    0.0000 </r>
       <r>    7.9031    0.0000 </r>
       <r>    9.4303    0.0000 </r>
       <r>    9.4402    0.0000 </r>
       <r>   10.2051    0.0000 </r>
       <r>   10.2088    0.0000 </r>
      </set>
      <set comment="kpoint 5">
       <r>   -6.0884    1.0000 </r>
       <r>   -4.0951    1.0000 </r>
       <r>   -3.6603    1.0000 </r>
       <r>   -3.1665    1.0000 </r>
       <r>   -0.8004    1.0000 </r>
       <r>   -0.7739    1.0000 </r>
       <r>   -0.7278    1.0000 </r>
       <r>    2.1215    1.0000 </r>
       <r>    2.8609    1.0000 </r>
       <r>    3.2580    1.0000 </r>
       <r>    3.9242    1.0000 </r>
       <r>    4.5916    1.0000 </r>
       <r>    4.6071    1.0000 </r>
       <r>    5.0881    1.0000 </r>
       <r>    5.6367    1.0000 </r>
       <r>    5.6554    1.0000 </r>
       <r>    6.8799    0.0000 </r>
       <r>    7.3106    0.0000 </r>
       <r>    7.7243    0.0000 </r>
       <r>    8.3656    0.0000 </r>
       <r>    8.4685    0.0000 </r>
       <r>    8.4797    0.0000 </r>
       <r>    8.7079    0.0000 </r>
       <r>    9.1357    0.0000 </r>
      </set>
      <set comment="kpoint 6">
       <r>   -5.9796    1.0000 </r>
       <r>   -4.2907    1.0000 </r>
       <r>   -4.1072    1.0000 </r>
       <r>   -2.4631    1.0000 </r>
       <r>   -1.4500    1.0000 </r>
       <r>   -0.6160    1.0000 </r>
       <r>   -0.0326    1.0000 </r>
       <r>    1.6477    1.0000 </r>
       <r>    3.2611    1.0000 </r>
       <r>    3.6325    1.0000 </r>
       <r>    3.8895    1.0000 </r>
       <r>    4.0891    1.0000 </r>
       <r>    4.5967    1.0000 </r>
       <r>    4.7052    1.0000 </r>
       <r>    5.1920    1.0000 </r>
       <r>    5.2781    1.0000 </r>
       <r>    6.8710    0.0000 </r>
       <r>    7.8436    0.0000 </r>
       <r>    7.9192    0.0000 </r>
       <r>    7.9945    0.0000 </r>
       <r>    8.9904    0.0000 </r>
       <r>    9.0805    0.0000 </r>
       <r>    9.1988    0.0000 </r>
       <r>    9.3106    0.0000 </r>
      </set>
      <set comment="kpoint 7">
       <r>   -5.7062    1.0000 </r>
       <r>   -4.9154    1.0000 </r>
       <r>   -3.9770    1.0000 </r>
       <r>   -2.6339    1.0000 </r>
       <r>   -1.2852    1.0000 </r>
       <r>   -0.3673    1.0000 </r>
       <r>    0.9830    1.0000 </r>
       <r>    1.5262    1.0000 </r>
       <r>    2.7284    1.0000 </r>
       <r>    3.4007    1.0000 </r>
       <r>    3.8029    1.0000 </r>
       <r>    4.3802    1.0000 </r>
       <r>    4.3809    1.0000 </r>
       <r>    4.4143    1.0000 </r>
       <r>    4.6207    1.0000 </r>
       <r>    4.6339    1.0000 </r>
       <r>    7.0359    0.0000 </r>
       <r>    7.5144    0.0000 </r>
       <r>    8.0719    0.0000 </r>
       <r>    8.1509    0.0000 </r>
       <r>    9.0950    0.0000 </r>
       <r>    9.8502    0.0000 </r>
       <r>    9.9446    0.0000 </r>
       <r>    9.9731    0.0000 </r>
      </set>
      <set comment="kpoint 8">
       <r>   -5.4345    1.0000 </r>
       <r>   -5.2721    1.0000 </r>
       <r>   -3.7261    1.0000 </r>
       <r>   -3.1748    1.0000 </r>
       <r>   -0.9709    1.0000 </r>
       <r>   -0.2318    1.0000 </r>
       <r>    1.8083    1.0000 </r>
       <r>    1.9955    1.0000 </r>
       <r>    2.1707    1.0000 </r>
       <r>    2.5884    1.0000 </r>
       <r>    3.6601    1.0000 </r>
       <r>    4.0716    1.0000 </r>
       <r>    4.0952    1.0000 </r>
       <r>    4.1734    1.0000 </r>
       <r>    4.7914    1.0000 </r>
       <r>    5.0015    1.0000 </r>
       <r>    7.2070    0.0000 </r>
       <r>    7.3744    0.0000 </r>
       <r>    7.9185    0.0000 </r>
       <r>    8.0564    0.0000 </r>
       <r>    8.9487    0.0000 </r>
       <r>    9.3659    0.0000 </r>
       <r>    9.5654    0.0000 </r>
       <r>   10.8318    0.0000 </r>
      </set>
      <set comment="kpoint 9">
       <r>   -5.8113    1.0000 </r>
       <r>   -4.6876    1.0000 </r>
       <r>   -3.6236    1.0000 </r>
       <r>   -3.4249    1.0000 </r>
       <r>   -0.9060    1.0000 </r>
       <r>   -0.5737    1.0000 </r>
       <r>    1.3789    1.0000 </r>
       <r>    1.6714    1.0000 </r>
       <r>    2.9613    1.0000 </r>
       <r>    3.4328    1.0000 </r>
       <r>    3.4626    1.0000 </r>
       <r>    3.6798    1.0000 </r>
       <r>    3.9796    1.0000 </r>
       <r>    4.0064    1.0000 </r>
       <r>    5.2619    1.0000 </r>
       <r>    5.3576    1.0000 </r>
       <r>    7.0781    0.0000 </r>
       <r>    7.7057    0.0000 </r>
       <r>    7.8038    0.0000 </r>
       <r>    8.1085    0.0000 </r>
       <r>    8.6988    0.0000 </r>
       <r>    8.8732    0.0000 </r>
       <r>    9.0057    0.0000 </r>
       <r>    9.8385    0.0000 </r>
      </set>
      <set comment="kpoint 10">
       <r>   -6.0315    1.0000 </r>
       <r>   -3.9717    1.0000 </r>
       <r>   -3.9323    1.0000 </r>
       <r>   -3.3027    1.0000 </r>
       <r>   -0.9836    1.0000 </r>
       <r>   -0.8873    1.0000 </r>
       <r>    0.2578    1.0000 </r>
       <r>    2.1562    1.0000 </r>
       <r>    2.7554    1.0000 </r>
       <r>    3.3979    1.0000 </r>
       <r>    3.8913    1.0000 </r>
       <r>    4.0503    1.0000 </r>
       <r>    4.3566    1.0000 </r>
       <r>    4.7150    1.0000 </r>
       <r>    5.4049    1.0000 </r>
       <r>    5.6469    1.0000 </r>
       <r>    6.9893    0.0000 </r>
       <r>    7.6364    0.0000 </r>
       <r>    7.7995    0.0000 </r>
       <r>    8.3853    0.0000 </r>
       <r>    8.4536    0.0000 </r>
       <r>    8.4931    0.0000 </r>
       <r>    8.6569    0.0000 </r>
       <r>    9.0022    0.0000 </r>
      </set>
      <set comment="kpoint 11">
       <r>   -5.8904    1.0000 </r>
       <r>   -4.6083    1.0000 </r>
       <r>   -3.7830    1.0000 </r>
       <r>   -2.7804    1.0000 </r>
       <r>   -1.1870    1.0000 </r>
       <r>   -1.0049    1.0000 </r>
       <r>    0.0865    1.0000 </r>
       <r>    2.4575    1.0000 </r>
       <r>    3.0438    1.0000 </r>
       <r>    3.7025    1.0000 </r>
       <r>    3.8272    1.0000 </r>
       <r>    4.2822    1.0000 </r>
       <r>    4.7004    1.0000 </r>
       <r>    4.7159    1.0000 </r>
       <r>    5.3907    1.0000 </r>
       <r>    5.4079    1.0000 </r>
       <r>    6.5993    0.0000 </r>
       <r>    7.4335    0.0000 </r>
       <r>    7.4492    0.0000 </r>
       <r>    7.9122    0.0000 </r>
       <r>    8.1751    0.0000 </r>
       <r>    8.8277    0.0000 </r>
       <r>    8.8397    0.0000 </r>
       <r>    9.1016    0.0000 </r>
      </set>
      <set comment="kpoint 12">
       <r>   -5.7567    1.0000 </r>
       <r>   -4.6354    1.0000 </r>
       <r>   -4.2791    1.0000 </r>
       <r>   -2.1919    1.0000 </r>
       <r>   -1.7788    1.0000 </r>
       <r>   -0.3932    1.0000 </r>
       <r>    0.3246    1.0000 </r>
       <r>    2.0772    1.0000 </r>
       <r>    3.0739    1.0000 </r>
       <r>    3.5102    1.0000 </r>
       <r>    3.9442    1.0000 </r>
       <r>    4.3490    1.0000 </r>
       <r>    4.4282    1.0000 </r>
       <r>    4.8198    1.0000 </r>
       <r>    4.8877    1.0000 </r>
       <r>    5.1049    1.0000 </r>
       <r>    6.6515    0.0000 </r>
       <r>    7.7162    0.0000 </r>
       <r>    7.9813    0.0000 </r>
       <r>    8.0008    0.0000 </r>
       <r>    8.1078    0.0000 </r>
       <r>    8.9336    0.0000 </r>
       <r>    9.0100    0.0000 </r>
       <r>    9.3073    0.0000 </r>
      </set>
      <set comment="kpoint 13">
       <r>   -5.4587    1.0000 </r>
       <r>   -4.8410    1.0000 </r>
       <r>   -4.5114    1.0000 </r>
       <r>   -2.9340    1.0000 </r>
       <r>   -0.9834    1.0000 </r>
       <r>    0.5703    1.0000 </r>
       <r>    0.5797    1.0000 </r>
       <r>    1.9675    1.0000 </r>
       <r>    2.8086    1.0000 </r>
       <r>    2.9831    1.0000 </r>
       <r>    3.2442    1.0000 </r>
       <r>    4.3182    1.0000 </r>
       <r>    4.3429    1.0000 </r>
       <r>    4.6868    1.0000 </r>
       <r>    4.7184    1.0000 </r>
       <r>    4.7924    1.0000 </r>
       <r>    6.8616    0.0000 </r>
       <r>    7.4207    0.0000 </r>
       <r>    7.5701    0.0000 </r>
       <r>    8.4256    0.0000 </r>
       <r>    8.8512    0.0000 </r>
       <r>    9.1748    0.0000 </r>
       <r>    9.3685    0.0000 </r>
       <r>    9.7097    0.0000 </r>
      </set>
      <set comment="kpoint 14">
       <r>   -5.3206    1.0000 </r>
       <r>   -4.9998    1.0000 </r>
       <r>   -4.2551    1.0000 </r>
       <r>   -3.5814    1.0000 </r>
       <r>   -0.4343    1.0000 </r>
       <r>    0.4541    1.0000 </r>
       <r>    1.7442    1.0000 </r>
       <r>    2.0673    1.0000 </r>
       <r>    2.1604    1.0000 </r>
       <r>    2.3558    1.0000 </r>
       <r>    3.5406    1.0000 </r>
       <r>    3.8118    1.0000 </r>
       <r>    3.8124    1.0000 </r>
       <r>    4.5178    1.0000 </r>
       <r>    4.8770    1.0000 </r>
       <r>    5.0383    1.0000 </r>
       <r>    6.8563    0.0000 </r>
       <r>    7.2550    0.0000 </r>
       <r>    7.7662    0.0000 </r>
       <r>    8.2857    0.0000 </r>
       <r>    8.7656    0.0000 </r>
       <r>    9.1976    0.0000 </r>
       <r>    9.3306    0.0000 </r>
       <r>    9.9115    0.0000 </r>
      </set>
      <set comment="kpoint 15">
       <r>   -5.6665    1.0000 </r>
       <r>   -4.3883    1.0000 </r>
       <r>   -4.0805    1.0000 </r>
       <r>   -3.9174    1.0000 </r>
       <r>   -0.2956    1.0000 </r>
       <r>   -0.2055    1.0000 </r>
       <r>    0.9548    1.0000 </r>
       <r>    2.4115    1.0000 </r>
       <r>    2.9971    1.0000 </r>
       <r>    3.2340    1.0000 </r>
       <r>    3.3985    1.0000 </r>
       <r>    3.4176    1.0000 </r>
       <r>    3.9338    1.0000 </r>
       <r>    4.3447    1.0000 </r>
       <r>    4.7020    1.0000 </r>
       <r>    5.4009    1.0000 </r>
       <r>    6.5660    0.0000 </r>
       <r>    7.7618    0.0000 </r>
       <r>    7.9211    0.0000 </r>
       <r>    8.1011    0.0000 </r>
       <r>    8.2766    0.0000 </r>
       <r>    8.8834    0.0000 </r>
       <r>    9.2263    0.0000 </r>
       <r>    9.9442    0.0000 </r>
      </set>
      <set comment="kpoint 16">
       <r>   -5.8593    1.0000 </r>
       <r>   -4.4237    1.0000 </r>
       <r>   -3.6576    1.0000 </r>
       <r>   -3.6376    1.0000 </r>
       <r>   -0.9622    1.0000 </r>
       <r>   -0.1569    1.0000 </r>
       <r>   -0.0786    1.0000 </r>
       <r>    2.9364    1.0000 </r>
       <r>    3.0141    1.0000 </r>
       <r>    3.1589    1.0000 </r>
       <r>    3.9195    1.0000 </r>
       <r>    4.2498    1.0000 </r>
       <r>    4.2564    1.0000 </r>
       <r>    4.3603    1.0000 </r>
       <r>    4.7575    1.0000 </r>
       <r>    5.5929    1.0000 </r>
       <r>    6.5506    0.0000 </r>
       <r>    7.4165    0.0000 </r>
       <r>    7.8939    0.0000 </r>
       <r>    7.9965    0.0000 </r>
       <r>    8.6309    0.0000 </r>
       <r>    8.6465    0.0000 </r>
       <r>    8.8258    0.0000 </r>
       <r>    9.0194    0.0000 </r>
      </set>
      <set comment="kpoint 17">
       <r>   -5.5662    1.0000 </r>
       <r>   -5.1285    1.0000 </r>
       <r>   -3.8396    1.0000 </r>
       <r>   -2.3040    1.0000 </r>
       <r>   -1.7555    1.0000 </r>
       <r>   -1.1494    1.0000 </r>
       <r>    1.2197    1.0000 </r>
       <r>    2.4912    1.0000 </r>
       <r>    2.8579    1.0000 </r>
       <r>    2.9337    1.0000 </r>
       <r>    4.4346    1.0000 </r>
       <r>    4.5231    1.0000 </r>
       <r>    4.8787    1.0000 </r>
       <r>    4.8942    1.0000 </r>
       <r>    5.1177    1.0000 </r>
       <r>    5.1339    1.0000 </r>
       <r>    6.4633    0.0000 </r>
       <r>    6.6298    0.0000 </r>
       <r>    7.3933    0.0000 </r>
       <r>    7.6361    0.0000 </r>
       <r>    7.8965    0.0000 </r>
       <r>    9.0604    0.0000 </r>
       <r>    9.1586    0.0000 </r>
       <r>    9.1704    0.0000 </r>
      </set>
      <set comment="kpoint 18">
       <r>   -5.4095    1.0000 </r>
       <r>   -5.1432    1.0000 </r>
       <r>   -4.1616    1.0000 </r>
       <r>   -2.6757    1.0000 </r>
       <r>   -1.3284    1.0000 </r>
       <r>   -0.6903    1.0000 </r>
       <r>    1.4717    1.0000 </r>
       <r>    2.2282    1.0000 </r>
       <r>    2.6551    1.0000 </r>
       <r>    2.9924    1.0000 </r>
       <r>    4.0970    1.0000 </r>
       <r>    4.5969    1.0000 </r>
       <r>    4.6095    1.0000 </r>
       <r>    4.6345    1.0000 </r>
       <r>    4.8151    1.0000 </r>
       <r>    5.0904    1.0000 </r>
       <r>    6.5239    0.0000 </r>
       <r>    7.0568    0.0000 </r>
       <r>    7.3240    0.0000 </r>
       <r>    8.1773    0.0000 </r>
       <r>    8.1859    0.0000 </r>
       <r>    8.9560    0.0000 </r>
       <r>    9.1399    0.0000 </r>
       <r>    9.1514    0.0000 </r>
      </set>
      <set comment="kpoint 19">
       <r>   -5.0894    1.0000 </r>
       <r>   -5.0022    1.0000 </r>
       <r>   -4.6441    1.0000 </r>
       <r>   -3.4684    1.0000 </r>
       <r>   -0.3690    1.0000 </r>
       <r>    0.2215    1.0000 </r>
       <r>    1.5924    1.0000 </r>
       <r>    1.8878    1.0000 </r>
       <r>    2.5713    1.0000 </r>
       <r>    3.0923    1.0000 </r>
       <r>    3.1937    1.0000 </r>
       <r>    3.9816    1.0000 </r>
       <r>    4.0939    1.0000 </r>
       <r>    4.3763    1.0000 </r>
       <r>    4.8030    1.0000 </r>
       <r>    5.0381    1.0000 </r>
       <r>    6.7473    0.0000 </r>
       <r>    7.6334    0.0000 </r>
       <r>    7.6572    0.0000 </r>
       <r>    7.8783    0.0000 </r>
       <r>    8.6919    0.0000 </r>
       <r>    9.2013    0.0000 </r>
       <r>    9.3282    0.0000 </r>
       <r>    9.5226    0.0000 </r>
      </set>
      <set comment="kpoint 20">
       <r>   -5.0799    1.0000 </r>
       <r>   -4.7193    1.0000 </r>
       <r>   -4.6088    1.0000 </r>
       <r>   -4.1181    1.0000 </r>
       <r>    0.3817    1.0000 </r>
       <r>    0.9539    1.0000 </r>
       <r>    1.2592    1.0000 </r>
       <r>    1.3451    1.0000 </r>
       <r>    2.8404    1.0000 </r>
       <r>    2.9504    1.0000 </r>
       <r>    3.3813    1.0000 </r>
       <r>    3.5253    1.0000 </r>
       <r>    3.6184    1.0000 </r>
       <r>    3.9873    1.0000 </r>
       <r>    4.8490    1.0000 </r>
       <r>    5.0607    1.0000 </r>
       <r>    6.9938    0.0000 </r>
       <r>    7.1811    0.0000 </r>
       <r>    8.2106    0.0000 </r>
       <r>    8.5242    0.0000 </r>
       <r>    8.5417    0.0000 </r>
       <r>    8.9450    0.0000 </r>
       <r>    9.2434    0.0000 </r>
       <r>    9.4964    0.0000 </r>
      </set>
      <set comment="kpoint 21">
       <r>   -5.3939    1.0000 </r>
       <r>   -4.6152    1.0000 </r>
       <r>   -4.3321    1.0000 </r>
       <r>   -3.9747    1.0000 </r>
       <r>   -0.0611    1.0000 </r>
       <r>    0.3108    1.0000 </r>
       <r>    0.7834    1.0000 </r>
       <r>    2.4326    1.0000 </r>
       <r>    3.1440    1.0000 </r>
       <r>    3.2523    1.0000 </r>
       <r>    3.4028    1.0000 </r>
       <r>    3.5861    1.0000 </r>
       <r>    3.7418    1.0000 </r>
       <r>    3.9637    1.0000 </r>
       <r>    4.6601    1.0000 </r>
       <r>    5.3038    1.0000 </r>
       <r>    6.5314    0.0000 </r>
       <r>    7.5807    0.0000 </r>
       <r>    7.7536    0.0000 </r>
       <r>    8.1748    0.0000 </r>
       <r>    8.7356    0.0000 </r>
       <r>    9.1113    0.0000 </r>
       <r>    9.3843    0.0000 </r>
       <r>    9.4232    0.0000 </r>
      </set>
      <set comment="kpoint 22">
       <r>   -5.5597    1.0000 </r>
       <r>   -4.9527    1.0000 </r>
       <r>   -3.9491    1.0000 </r>
       <r>   -3.1992    1.0000 </r>
       <r>   -0.8813    1.0000 </r>
       <r>   -0.7404    1.0000 </r>
       <r>    1.0038    1.0000 </r>
       <r>    2.7175    1.0000 </r>
       <r>    3.0211    1.0000 </r>
       <r>    3.0263    1.0000 </r>
       <r>    3.9630    1.0000 </r>
       <r>    4.3552    1.0000 </r>
       <r>    4.4506    1.0000 </r>
       <r>    4.5127    1.0000 </r>
       <r>    4.5423    1.0000 </r>
       <r>    5.3710    1.0000 </r>
       <r>    6.3407    0.0000 </r>
       <r>    6.9228    0.0000 </r>
       <r>    7.7574    0.0000 </r>
       <r>    8.0453    0.0000 </r>
       <r>    8.4293    0.0000 </r>
       <r>    8.9554    0.0000 </r>
       <r>    9.0362    0.0000 </r>
       <r>    9.1302    0.0000 </r>
      </set>
      <set comment="kpoint 23">
       <r>   -6.0763    1.0000 </r>
       <r>   -3.7993    1.0000 </r>
       <r>   -3.4699    1.0000 </r>
       <r>   -3.3173    1.0000 </r>
       <r>   -1.1009    1.0000 </r>
       <r>   -0.6295    1.0000 </r>
       <r>   -0.6020    1.0000 </r>
       <r>    2.0818    1.0000 </r>
       <r>    2.2614    1.0000 </r>
       <r>    3.1878    1.0000 </r>
       <r>    3.4629    1.0000 </r>
       <r>    3.9953    1.0000 </r>
       <r>    4.4423    1.0000 </r>
       <r>    5.0743    1.0000 </r>
       <r>    5.4681    1.0000 </r>
       <r>    5.6805    1.0000 </r>
       <r>    7.7475    0.0000 </r>
       <r>    7.7625    0.0000 </r>
       <r>    8.0167    0.0000 </r>
       <r>    8.2978    0.0000 </r>
       <r>    8.5211    0.0000 </r>
       <r>    8.5989    0.0000 </r>
       <r>    9.0040    0.0000 </r>
       <r>    9.4017    0.0000 </r>
      </set>
      <set comment="kpoint 24">
       <r>   -5.9855    1.0000 </r>
       <r>   -4.1701    1.0000 </r>
       <r>   -3.7635    1.0000 </r>
       <r>   -2.6971    1.0000 </r>
       <r>   -1.1998    1.0000 </r>
       <r>   -1.0010    1.0000 </r>
       <r>    0.1963    1.0000 </r>
       <r>    1.6194    1.0000 </r>
       <r>    2.7749    1.0000 </r>
       <r>    3.0689    1.0000 </r>
       <r>    3.5963    1.0000 </r>
       <r>    3.8927    1.0000 </r>
       <r>    4.2604    1.0000 </r>
       <r>    4.4142    1.0000 </r>
       <r>    5.3484    1.0000 </r>
       <r>    5.5773    1.0000 </r>
       <r>    7.7201    0.0000 </r>
       <r>    8.0154    0.0000 </r>
       <r>    8.1874    0.0000 </r>
       <r>    8.3435    0.0000 </r>
       <r>    8.5482    0.0000 </r>
       <r>    8.7962    0.0000 </r>
       <r>    9.0250    0.0000 </r>
       <r>    9.6908    0.0000 </r>
      </set>
      <set comment="kpoint 25">
       <r>   -5.7310    1.0000 </r>
       <r>   -4.8277    1.0000 </r>
       <r>   -3.5930    1.0000 </r>
       <r>   -2.7058    1.0000 </r>
       <r>   -1.1588    1.0000 </r>
       <r>   -0.8288    1.0000 </r>
       <r>    1.2230    1.0000 </r>
       <r>    1.4452    1.0000 </r>
       <r>    2.6617    1.0000 </r>
       <r>    3.1697    1.0000 </r>
       <r>    3.2731    1.0000 </r>
       <r>    3.5022    1.0000 </r>
       <r>    3.9313    1.0000 </r>
       <r>    4.4999    1.0000 </r>
       <r>    4.5180    1.0000 </r>
       <r>    5.2899    1.0000 </r>
       <r>    7.8489    0.0000 </r>
       <r>    8.2115    0.0000 </r>
       <r>    8.3721    0.0000 </r>
       <r>    8.5709    0.0000 </r>
       <r>    8.9433    0.0000 </r>
       <r>    8.9942    0.0000 </r>
       <r>    9.3731    0.0000 </r>
       <r>    9.4549    0.0000 </r>
      </set>
      <set comment="kpoint 26">
       <r>   -5.3693    1.0000 </r>
       <r>   -5.3169    1.0000 </r>
       <r>   -3.3099    1.0000 </r>
       <r>   -3.0954    1.0000 </r>
       <r>   -0.9837    1.0000 </r>
       <r>   -0.7108    1.0000 </r>
       <r>    1.7969    1.0000 </r>
       <r>    1.8363    1.0000 </r>
       <r>    2.3726    1.0000 </r>
       <r>    2.4376    1.0000 </r>
       <r>    3.4483    1.0000 </r>
       <r>    3.5914    1.0000 </r>
       <r>    3.7347    1.0000 </r>
       <r>    3.8351    1.0000 </r>
       <r>    4.7770    1.0000 </r>
       <r>    5.1025    1.0000 </r>
       <r>    8.0586    0.0000 </r>
       <r>    8.1317    0.0000 </r>
       <r>    8.3079    0.0000 </r>
       <r>    8.5072    0.0000 </r>
       <r>    9.0245    0.0000 </r>
       <r>    9.4801    0.0000 </r>
       <r>    9.8766    0.0000 </r>
       <r>    9.9830    0.0000 </r>
      </set>
      <set comment="kpoint 27">
       <r>   -5.7640    1.0000 </r>
       <r>   -4.7568    1.0000 </r>
       <r>   -3.4537    1.0000 </r>
       <r>   -2.9984    1.0000 </r>
       <r>   -1.0237    1.0000 </r>
       <r>   -0.8810    1.0000 </r>
       <r>    1.3283    1.0000 </r>
       <r>    1.4786    1.0000 </r>
       <r>    2.6756    1.0000 </r>
       <r>    3.1199    1.0000 </r>
       <r>    3.3601    1.0000 </r>
       <r>    3.5586    1.0000 </r>
       <r>    3.8654    1.0000 </r>
       <r>    4.1570    1.0000 </r>
       <r>    4.5009    1.0000 </r>
       <r>    5.5286    1.0000 </r>
       <r>    7.9780    0.0000 </r>
       <r>    8.0611    0.0000 </r>
       <r>    8.4698    0.0000 </r>
       <r>    8.6277    0.0000 </r>
       <r>    8.7412    0.0000 </r>
       <r>    8.9972    0.0000 </r>
       <r>    9.0143    0.0000 </r>
       <r>    9.5882    0.0000 </r>
      </set>
      <set comment="kpoint 28">
       <r>   -6.0018    1.0000 </r>
       <r>   -4.0710    1.0000 </r>
       <r>   -3.6944    1.0000 </r>
       <r>   -2.9638    1.0000 </r>
       <r>   -1.0996    1.0000 </r>
       <r>   -1.0475    1.0000 </r>
       <r>    0.2878    1.0000 </r>
       <r>    1.7535    1.0000 </r>
       <r>    2.5987    1.0000 </r>
       <r>    3.2987    1.0000 </r>
       <r>    3.5344    1.0000 </r>
       <r>    3.5717    1.0000 </r>
       <r>    4.3060    1.0000 </r>
       <r>    4.6122    1.0000 </r>
       <r>    5.2254    1.0000 </r>
       <r>    5.6139    1.0000 </r>
       <r>    7.8732    0.0000 </r>
       <r>    7.9609    0.0000 </r>
       <r>    8.0299    0.0000 </r>
       <r>    8.3228    0.0000 </r>
       <r>    8.6160    0.0000 </r>
       <r>    8.7678    0.0000 </r>
       <r>    9.0198    0.0000 </r>
       <r>    9.4768    0.0000 </r>
      </set>
      <set comment="kpoint 29">
       <r>   -5.9678    1.0000 </r>
       <r>   -4.1763    1.0000 </r>
       <r>   -3.6401    1.0000 </r>
       <r>   -3.0044    1.0000 </r>
       <r>   -0.8673    1.0000 </r>
       <r>   -0.8218    1.0000 </r>
       <r>   -0.5223    1.0000 </r>
       <r>    2.2035    1.0000 </r>
       <r>    2.8295    1.0000 </r>
       <r>    2.8431    1.0000 </r>
       <r>    3.9376    1.0000 </r>
       <r>    4.0323    1.0000 </r>
       <r>    4.4995    1.0000 </r>
       <r>    4.5374    1.0000 </r>
       <r>    5.0924    1.0000 </r>
       <r>    5.5194    1.0000 </r>
       <r>    7.3937    0.0000 </r>
       <r>    7.8272    0.0000 </r>
       <r>    8.1946    0.0000 </r>
       <r>    8.3503    0.0000 </r>
       <r>    8.4119    0.0000 </r>
       <r>    8.7943    0.0000 </r>
       <r>    8.9241    0.0000 </r>
       <r>    9.0160    0.0000 </r>
      </set>
      <set comment="kpoint 30">
       <r>   -5.8519    1.0000 </r>
       <r>   -4.2330    1.0000 </r>
       <r>   -4.1962    1.0000 </r>
       <r>   -2.2572    1.0000 </r>
       <r>   -1.6259    1.0000 </r>
       <r>   -0.3248    1.0000 </r>
       <r>   -0.1216    1.0000 </r>
       <r>    1.8092    1.0000 </r>
       <r>    2.7911    1.0000 </r>
       <r>    3.2677    1.0000 </r>
       <r>    3.7338    1.0000 </r>
       <r>    3.8873    1.0000 </r>
       <r>    4.2885    1.0000 </r>
       <r>    4.3932    1.0000 </r>
       <r>    4.8211    1.0000 </r>
       <r>    5.4895    1.0000 </r>
       <r>    7.4275    0.0000 </r>
       <r>    8.0517    0.0000 </r>
       <r>    8.3353    0.0000 </r>
       <r>    8.3848    0.0000 </r>
       <r>    8.7560    0.0000 </r>
       <r>    8.9277    0.0000 </r>
       <r>    9.0006    0.0000 </r>
       <r>    9.0918    0.0000 </r>
      </set>
      <set comment="kpoint 31">
       <r>   -5.5722    1.0000 </r>
       <r>   -4.8366    1.0000 </r>
       <r>   -4.0727    1.0000 </r>
       <r>   -2.6082    1.0000 </r>
       <r>   -1.2725    1.0000 </r>
       <r>   -0.0900    1.0000 </r>
       <r>    0.8700    1.0000 </r>
       <r>    1.6824    1.0000 </r>
       <r>    2.7112    1.0000 </r>
       <r>    2.9605    1.0000 </r>
       <r>    3.0893    1.0000 </r>
       <r>    3.6983    1.0000 </r>
       <r>    4.1333    1.0000 </r>
       <r>    4.5129    1.0000 </r>
       <r>    4.6836    1.0000 </r>
       <r>    4.8896    1.0000 </r>
       <r>    7.6003    0.0000 </r>
       <r>    7.7928    0.0000 </r>
       <r>    8.2851    0.0000 </r>
       <r>    8.7007    0.0000 </r>
       <r>    9.0003    0.0000 </r>
       <r>    9.2028    0.0000 </r>
       <r>    9.4937    0.0000 </r>
       <r>    9.6852    0.0000 </r>
      </set>
      <set comment="kpoint 32">
       <r>   -5.3419    1.0000 </r>
       <r>   -5.1328    1.0000 </r>
       <r>   -3.8237    1.0000 </r>
       <r>   -3.2058    1.0000 </r>
       <r>   -0.8521    1.0000 </r>
       <r>   -0.0377    1.0000 </r>
       <r>    1.9283    1.0000 </r>
       <r>    2.0259    1.0000 </r>
       <r>    2.0340    1.0000 </r>
       <r>    2.1646    1.0000 </r>
       <r>    3.3282    1.0000 </r>
       <r>    3.8127    1.0000 </r>
       <r>    3.8917    1.0000 </r>
       <r>    4.1419    1.0000 </r>
       <r>    4.1872    1.0000 </r>
       <r>    5.2085    1.0000 </r>
       <r>    7.4098    0.0000 </r>
       <r>    7.9350    0.0000 </r>
       <r>    8.2995    0.0000 </r>
       <r>    8.6495    0.0000 </r>
       <r>    9.0817    0.0000 </r>
       <r>    9.3760    0.0000 </r>
       <r>    9.4933    0.0000 </r>
       <r>    9.7415    0.0000 </r>
      </set>
      <set comment="kpoint 33">
       <r>   -5.7079    1.0000 </r>
       <r>   -4.5436    1.0000 </r>
       <r>   -3.6781    1.0000 </r>
       <r>   -3.5141    1.0000 </r>
       <r>   -0.7085    1.0000 </r>
       <r>   -0.4928    1.0000 </r>
       <r>    1.1413    1.0000 </r>
       <r>    1.8929    1.0000 </r>
       <r>    2.7507    1.0000 </r>
       <r>    3.1466    1.0000 </r>
       <r>    3.2750    1.0000 </r>
       <r>    3.6651    1.0000 </r>
       <r>    3.7210    1.0000 </r>
       <r>    3.8789    1.0000 </r>
       <r>    4.7088    1.0000 </r>
       <r>    5.2462    1.0000 </r>
       <r>    7.2789    0.0000 </r>
       <r>    8.2611    0.0000 </r>
       <r>    8.3584    0.0000 </r>
       <r>    8.4544    0.0000 </r>
       <r>    8.6568    0.0000 </r>
       <r>    8.8283    0.0000 </r>
       <r>    9.1706    0.0000 </r>
       <r>    9.4706    0.0000 </r>
      </set>
      <set comment="kpoint 34">
       <r>   -5.9190    1.0000 </r>
       <r>   -4.0034    1.0000 </r>
       <r>   -3.8211    1.0000 </r>
       <r>   -3.3496    1.0000 </r>
       <r>   -0.9680    1.0000 </r>
       <r>   -0.6398    1.0000 </r>
       <r>    0.1040    1.0000 </r>
       <r>    2.3255    1.0000 </r>
       <r>    2.6552    1.0000 </r>
       <r>    3.1643    1.0000 </r>
       <r>    3.4977    1.0000 </r>
       <r>    3.7121    1.0000 </r>
       <r>    4.4294    1.0000 </r>
       <r>    4.4622    1.0000 </r>
       <r>    5.0508    1.0000 </r>
       <r>    5.1516    1.0000 </r>
       <r>    7.3474    0.0000 </r>
       <r>    7.9228    0.0000 </r>
       <r>    8.1114    0.0000 </r>
       <r>    8.2393    0.0000 </r>
       <r>    8.3810    0.0000 </r>
       <r>    9.0666    0.0000 </r>
       <r>    9.1378    0.0000 </r>
       <r>    9.2777    0.0000 </r>
      </set>
      <set comment="kpoint 35">
       <r>   -5.7292    1.0000 </r>
       <r>   -4.7090    1.0000 </r>
       <r>   -3.7371    1.0000 </r>
       <r>   -2.6004    1.0000 </r>
       <r>   -1.3632    1.0000 </r>
       <r>   -1.0310    1.0000 </r>
       <r>    0.4527    1.0000 </r>
       <r>    2.5683    1.0000 </r>
       <r>    2.6895    1.0000 </r>
       <r>    3.3465    1.0000 </r>
       <r>    3.5051    1.0000 </r>
       <r>    4.1291    1.0000 </r>
       <r>    4.3312    1.0000 </r>
       <r>    4.6808    1.0000 </r>
       <r>    4.7275    1.0000 </r>
       <r>    5.3488    1.0000 </r>
       <r>    7.0568    0.0000 </r>
       <r>    7.3158    0.0000 </r>
       <r>    7.9660    0.0000 </r>
       <r>    8.0482    0.0000 </r>
       <r>    8.3287    0.0000 </r>
       <r>    8.7882    0.0000 </r>
       <r>    9.0219    0.0000 </r>
       <r>    9.0828    0.0000 </r>
      </set>
      <set comment="kpoint 36">
       <r>   -5.5893    1.0000 </r>
       <r>   -4.7325    1.0000 </r>
       <r>   -4.1833    1.0000 </r>
       <r>   -2.2673    1.0000 </r>
       <r>   -1.6795    1.0000 </r>
       <r>   -0.4631    1.0000 </r>
       <r>    0.6849    1.0000 </r>
[...]
       <r>   -3.0420    1.0000 </r>
       <r>   -2.1069    1.0000 </r>
       <r>   -1.8465    1.0000 </r>
       <r>   -0.8823    1.0000 </r>
       <r>   -0.8181    1.0000 </r>
       <r>   -0.4540    1.0000 </r>
       <r>    2.1082    1.0000 </r>
       <r>    2.2484    1.0000 </r>
       <r>    2.7337    1.0000 </r>
       <r>    2.7775    1.0000 </r>
       <r>    2.8763    1.0000 </r>
       <r>    3.8822    1.0000 </r>
       <r>    3.9079    1.0000 </r>
       <r>    4.5596    1.0000 </r>
       <r>    6.9588    0.0000 </r>
       <r>    7.5672    0.0000 </r>
       <r>    7.9296    0.0000 </r>
       <r>    7.9919    0.0000 </r>
       <r>    8.2792    0.0000 </r>
       <r>    8.5772    0.0000 </r>
       <r>    8.8891    0.0000 </r>
       <r>    9.0566    0.0000 </r>
      </set>
      <set comment="kpoint 230">
       <r>   -3.9513    1.0000 </r>
       <r>   -3.9051    1.0000 </r>
       <r>   -2.8020    1.0000 </r>
       <r>   -2.2880    1.0000 </r>
       <r>   -1.7194    1.0000 </r>
       <r>   -1.1173    1.0000 </r>
       <r>   -0.8958    1.0000 </r>
       <r>   -0.5491    1.0000 </r>
       <r>    1.9171    1.0000 </r>
       <r>    2.4149    1.0000 </r>
       <r>    2.9777    1.0000 </r>
       <r>    3.1999    1.0000 </r>
       <r>    3.2151    1.0000 </r>
       <r>    4.0070    1.0000 </r>
       <r>    4.1248    1.0000 </r>
       <r>    4.4247    1.0000 </r>
       <r>    6.6188    0.0000 </r>
       <r>    6.8843    0.0000 </r>
       <r>    7.3376    0.0000 </r>
       <r>    7.7374    0.0000 </r>
       <r>    7.8733    0.0000 </r>
       <r>    8.8055    0.0000 </r>
       <r>    9.0009    0.0000 </r>
       <r>    9.4396    0.0000 </r>
      </set>
      <set comment="kpoint 231">
       <r>   -4.1855    1.0000 </r>
       <r>   -3.6987    1.0000 </r>
       <r>   -2.5693    1.0000 </r>
       <r>   -2.5581    1.0000 </r>
       <r>   -1.4069    1.0000 </r>
       <r>   -1.3347    1.0000 </r>
       <r>   -1.0868    1.0000 </r>
       <r>   -0.0417    1.0000 </r>
       <r>    1.6565    1.0000 </r>
       <r>    2.4608    1.0000 </r>
       <r>    2.8132    1.0000 </r>
       <r>    3.1227    1.0000 </r>
       <r>    3.1721    1.0000 </r>
       <r>    3.4964    1.0000 </r>
       <r>    4.0600    1.0000 </r>
       <r>    4.3282    1.0000 </r>
       <r>    6.9100    0.0000 </r>
       <r>    7.2361    0.0000 </r>
       <r>    7.4278    0.0000 </r>
       <r>    7.9867    0.0000 </r>
       <r>    8.0849    0.0000 </r>
       <r>    9.1491    0.0000 </r>
       <r>    9.4982    0.0000 </r>
       <r>    9.5681    0.0000 </r>
      </set>
      <set comment="kpoint 232">
       <r>   -4.3665    1.0000 </r>
       <r>   -3.5064    1.0000 </r>
       <r>   -2.7962    1.0000 </r>
       <r>   -2.4084    1.0000 </r>
       <r>   -1.4076    1.0000 </r>
       <r>   -1.1240    1.0000 </r>
       <r>   -0.9918    1.0000 </r>
       <r>    0.5155    1.0000 </r>
       <r>    1.5849    1.0000 </r>
       <r>    1.9228    1.0000 </r>
       <r>    2.5873    1.0000 </r>
       <r>    2.6438    1.0000 </r>
       <r>    2.7557    1.0000 </r>
       <r>    3.1952    1.0000 </r>
       <r>    3.9709    1.0000 </r>
       <r>    4.3232    1.0000 </r>
       <r>    6.8742    0.0000 </r>
       <r>    7.8196    0.0000 </r>
       <r>    8.4695    0.0000 </r>
       <r>    8.7984    0.0000 </r>
       <r>    8.8757    0.0000 </r>
       <r>    9.1088    0.0000 </r>
       <r>    9.8848    0.0000 </r>
       <r>   10.4031    0.0000 </r>
      </set>
     </set>
    </set>
   </array>
  </eigenvalues>
  <separator name="orbital magnetization" >
   <v name="MAGDIPOLOUT">      0.00000000      0.00000000      0.00000000</v>
  </separator>
  <dos>
   <i name="efermi">      5.80964563 </i>
   <total>
    <array>
     <dimension dim="1">gridpoints</dimension>
     <dimension dim="2">spin</dimension>
     <field>energy</field>
     <field>total</field>
     <field>integrated</field>
     <set>
      <set comment="spin 1">
       <r>    -7.0064     0.0000     0.0000 </r>
       <r>    -6.9439     0.0000     0.0000 </r>
       <r>    -6.8815     0.0000     0.0000 </r>
       <r>    -6.8190     0.0000     0.0000 </r>
       <r>    -6.7566     0.0000     0.0000 </r>
       <r>    -6.6941     0.0000     0.0000 </r>
       <r>    -6.6317     0.0000     0.0000 </r>
       <r>    -6.5693     0.0000     0.0000 </r>
       <r>    -6.5068     0.0000     0.0000 </r>
       <r>    -6.4444     0.0000     0.0000 </r>
       <r>    -6.3819     0.0000     0.0000 </r>
       <r>    -6.3195     0.0000     0.0000 </r>
       <r>    -6.2571     0.0000     0.0000 </r>
       <r>    -6.1946     0.0000     0.0000 </r>
       <r>    -6.1322     0.0693     0.0043 </r>
       <r>    -6.0697     0.3395     0.0255 </r>
       <r>    -6.0073     0.3842     0.0496 </r>
       <r>    -5.9449     0.7799     0.0983 </r>
       <r>    -5.8824     0.4153     0.1242 </r>
       <r>    -5.8200     0.8333     0.1762 </r>
       <r>    -5.7575     0.9729     0.2370 </r>
       <r>    -5.6951     1.2680     0.3162 </r>
       <r>    -5.6327     0.7570     0.3635 </r>
       <r>    -5.5702     0.7087     0.4078 </r>
       <r>    -5.5078     1.0368     0.4725 </r>
       <r>    -5.4453     1.3144     0.5546 </r>
       <r>    -5.3829     1.5715     0.6528 </r>
       <r>    -5.3204     1.3753     0.7387 </r>
       <r>    -5.2580     1.2425     0.8162 </r>
       <r>    -5.1956     1.3801     0.9024 </r>
       <r>    -5.1331     1.4807     0.9949 </r>
       <r>    -5.0707     1.6552     1.0983 </r>
       <r>    -5.0082     1.2595     1.1770 </r>
       <r>    -4.9458     1.4809     1.2695 </r>
       <r>    -4.8834     1.7975     1.3818 </r>
       <r>    -4.8209     2.1807     1.5180 </r>
       <r>    -4.7585     1.3529     1.6025 </r>
       <r>    -4.6960     2.1045     1.7339 </r>
       <r>    -4.6336     2.1750     1.8697 </r>
       <r>    -4.5712     1.6338     1.9717 </r>
       <r>    -4.5087     2.2206     2.1104 </r>
       <r>    -4.4463     1.6227     2.2118 </r>
       <r>    -4.3838     1.8736     2.3288 </r>
       <r>    -4.3214     3.1528     2.5257 </r>
       <r>    -4.2590     1.8862     2.6436 </r>
       <r>    -4.1965     2.1482     2.7777 </r>
       <r>    -4.1341     3.1311     2.9732 </r>
       <r>    -4.0716     2.0374     3.1005 </r>
       <r>    -4.0092     3.3000     3.3066 </r>
       <r>    -3.9467     2.7946     3.4812 </r>
       <r>    -3.8843     3.5531     3.7031 </r>
       <r>    -3.8219     1.9471     3.8247 </r>
       <r>    -3.7594     2.9928     4.0117 </r>
       <r>    -3.6970     3.8880     4.2545 </r>
       <r>    -3.6345     4.6455     4.5445 </r>
       <r>    -3.5721     2.9740     4.7303 </r>
       <r>    -3.5097     3.6805     4.9601 </r>
       <r>    -3.4472     3.3669     5.1705 </r>
       <r>    -3.3848     1.9455     5.2920 </r>
       <r>    -3.3223     2.4714     5.4463 </r>
       <r>    -3.2599     3.4716     5.6631 </r>
       <r>    -3.1975     2.7711     5.8362 </r>
       <r>    -3.1350     3.0599     6.0272 </r>
       <r>    -3.0726     2.8690     6.2064 </r>
       <r>    -3.0101     2.3113     6.3508 </r>
       <r>    -2.9477     2.3881     6.4999 </r>
       <r>    -2.8853     2.0330     6.6268 </r>
       <r>    -2.8228     2.0711     6.7562 </r>
       <r>    -2.7604     2.4871     6.9115 </r>
       <r>    -2.6979     2.5722     7.0722 </r>
       <r>    -2.6355     2.4084     7.2226 </r>
       <r>    -2.5730     1.4432     7.3128 </r>
       <r>    -2.5106     1.1600     7.3852 </r>
       <r>    -2.4482     1.5127     7.4797 </r>
       <r>    -2.3857     1.9233     7.5998 </r>
       <r>    -2.3233     1.5900     7.6991 </r>
       <r>    -2.2608     0.9278     7.7570 </r>
       <r>    -2.1984     1.5320     7.8526 </r>
       <r>    -2.1360     1.2595     7.9314 </r>
       <r>    -2.0735     0.7468     7.9780 </r>
       <r>    -2.0111     0.2109     7.9912 </r>
       <r>    -1.9486     0.1373     7.9998 </r>
       <r>    -1.8862     0.2807     8.0173 </r>
       <r>    -1.8238     0.6872     8.0602 </r>
       <r>    -1.7613     0.6986     8.1039 </r>
       <r>    -1.6989     0.8196     8.1551 </r>
       <r>    -1.6364     0.4610     8.1839 </r>
       <r>    -1.5740     1.2488     8.2618 </r>
       <r>    -1.5116     1.5343     8.3576 </r>
       <r>    -1.4491     1.5420     8.4539 </r>
       <r>    -1.3867     2.3457     8.6004 </r>
       <r>    -1.3242     1.2674     8.6796 </r>
       <r>    -1.2618     1.6271     8.7812 </r>
       <r>    -1.1993     2.2239     8.9200 </r>
       <r>    -1.1369     2.8183     9.0961 </r>
       <r>    -1.0745     4.3870     9.3700 </r>
       <r>    -1.0120     5.3672     9.7052 </r>
       <r>    -0.9496     7.9667    10.2028 </r>
       <r>    -0.8871     4.1442    10.4618 </r>
       <r>    -0.8247     4.3835    10.7356 </r>
       <r>    -0.7623     3.6283    10.9622 </r>
       <r>    -0.6998     3.4255    11.1762 </r>
       <r>    -0.6374     3.8816    11.4186 </r>
       <r>    -0.5749     3.8620    11.6597 </r>
       <r>    -0.5125     2.2625    11.8011 </r>
       <r>    -0.4501     1.5131    11.8956 </r>
       <r>    -0.3876     2.0397    12.0230 </r>
       <r>    -0.3252     2.3682    12.1709 </r>
       <r>    -0.2627     2.3398    12.3171 </r>
       <r>    -0.2003     2.5110    12.4739 </r>
       <r>    -0.1379     2.1895    12.6107 </r>
       <r>    -0.0754     2.4334    12.7628 </r>
       <r>    -0.0130     1.8513    12.8784 </r>
       <r>     0.0495     0.9645    12.9387 </r>
       <r>     0.1119     2.4649    13.0926 </r>
       <r>     0.1744     2.0505    13.2207 </r>
       <r>     0.2368     1.5144    13.3153 </r>
       <r>     0.2992     1.5358    13.4112 </r>
       <r>     0.3617     1.2805    13.4911 </r>
       <r>     0.4241     1.0755    13.5583 </r>
       <r>     0.4866     1.9816    13.6821 </r>
       <r>     0.5490     1.5533    13.7791 </r>
       <r>     0.6114     1.4985    13.8727 </r>
       <r>     0.6739     1.0050    13.9355 </r>
       <r>     0.7363     0.6748    13.9776 </r>
       <r>     0.7988     0.8456    14.0304 </r>
       <r>     0.8612     1.0845    14.0981 </r>
       <r>     0.9236     1.4590    14.1892 </r>
       <r>     0.9861     1.3734    14.2750 </r>
       <r>     1.0485     1.4463    14.3653 </r>
       <r>     1.1110     1.2347    14.4425 </r>
       <r>     1.1734     0.7622    14.4901 </r>
       <r>     1.2358     0.8294    14.5418 </r>
       <r>     1.2983     0.7788    14.5905 </r>
       <r>     1.3607     1.1718    14.6637 </r>
       <r>     1.4232     1.2468    14.7416 </r>
       <r>     1.4856     2.1881    14.8782 </r>
       <r>     1.5481     2.6105    15.0413 </r>
       <r>     1.6105     4.5409    15.3248 </r>
       <r>     1.6729     4.6473    15.6151 </r>
       <r>     1.7354     4.8750    15.9195 </r>
       <r>     1.7978     3.7413    16.1531 </r>
       <r>     1.8603     5.0389    16.4678 </r>
       <r>     1.9227     4.7107    16.7621 </r>
       <r>     1.9851     4.6822    17.0545 </r>
       <r>     2.0476     2.5297    17.2127 </r>
       <r>     2.1100     4.0927    17.4683 </r>
       <r>     2.1725     6.4422    17.8705 </r>
       <r>     2.2349     4.3308    18.1411 </r>
       <r>     2.2973     3.7253    18.3738 </r>
       <r>     2.3598     3.9735    18.6220 </r>
       <r>     2.4222     3.6152    18.8478 </r>
       <r>     2.4847     2.8943    19.0286 </r>
       <r>     2.5471     2.9221    19.2111 </r>
       <r>     2.6095     6.4940    19.6167 </r>
       <r>     2.6720     5.7131    19.9735 </r>
       <r>     2.7344     5.2004    20.2983 </r>
       <r>     2.7969     3.9105    20.5425 </r>
       <r>     2.8593     5.8085    20.9052 </r>
       <r>     2.9218     5.1287    21.2256 </r>
       <r>     2.9842     6.0616    21.6042 </r>
       <r>     3.0466     7.1062    22.0480 </r>
       <r>     3.1091     5.8093    22.4108 </r>
       <r>     3.1715     6.8340    22.8375 </r>
       <r>     3.2340     5.3000    23.1685 </r>
       <r>     3.2964     5.5677    23.5163 </r>
       <r>     3.3588     4.7141    23.8107 </r>
       <r>     3.4213     5.0691    24.1273 </r>
       <r>     3.4837     4.8933    24.4330 </r>
       <r>     3.5462     8.4434    24.9603 </r>
       <r>     3.6086     5.1876    25.2844 </r>
       <r>     3.6710     5.4535    25.6250 </r>
       <r>     3.7335     4.3879    25.8992 </r>
       <r>     3.7959     4.1992    26.1615 </r>
       <r>     3.8584     5.3207    26.4938 </r>
       <r>     3.9208     5.4877    26.8365 </r>
       <r>     3.9832     5.3380    27.1698 </r>
       <r>     4.0457     5.8110    27.5328 </r>
       <r>     4.1081     5.7506    27.8920 </r>
       <r>     4.1706     5.3352    28.2252 </r>
       <r>     4.2330     4.2805    28.4925 </r>
       <r>     4.2955     3.2647    28.6965 </r>
       <r>     4.3579     5.3779    29.0324 </r>
       <r>     4.4203     4.6384    29.3221 </r>
       <r>     4.4828     3.7039    29.5534 </r>
       <r>     4.5452     4.3085    29.8225 </r>
       <r>     4.6077     3.9353    30.0684 </r>
       <r>     4.6701     3.5509    30.2901 </r>
       <r>     4.7325     4.0691    30.5442 </r>
       <r>     4.7950     3.1498    30.7408 </r>
       <r>     4.8574     2.1743    30.8767 </r>
       <r>     4.9199     2.7089    31.0459 </r>
       <r>     4.9823     1.7995    31.1583 </r>
       <r>     5.0447     1.5013    31.2521 </r>
       <r>     5.1072     2.3953    31.4016 </r>
       <r>     5.1696     1.4266    31.4908 </r>
       <r>     5.2321     1.2609    31.5696 </r>
       <r>     5.2945     1.3321    31.6528 </r>
       <r>     5.3569     1.0923    31.7210 </r>
       <r>     5.4194     1.2038    31.7962 </r>
       <r>     5.4818     0.8860    31.8516 </r>
       <r>     5.5443     0.7824    31.9004 </r>
       <r>     5.6067     0.7083    31.9447 </r>
       <r>     5.6692     0.5432    31.9786 </r>
       <r>     5.7316     0.1383    31.9872 </r>
       <r>     5.7940     0.2045    32.0000 </r>
       <r>     5.8565     0.0000    32.0000 </r>
       <r>     5.9189     0.0000    32.0000 </r>
       <r>     5.9814     0.0000    32.0000 </r>
       <r>     6.0438     0.0000    32.0000 </r>
       <r>     6.1062     0.0000    32.0000 </r>
       <r>     6.1687     0.0000    32.0000 </r>
       <r>     6.2311     0.0000    32.0000 </r>
       <r>     6.2936     0.0000    32.0000 </r>
       <r>     6.3560     0.1365    32.0085 </r>
       <r>     6.4184     0.0692    32.0128 </r>
       <r>     6.4809     0.6472    32.0533 </r>
       <r>     6.5433     1.0078    32.1162 </r>
       <r>     6.6058     1.1678    32.1892 </r>
       <r>     6.6682     1.1530    32.2612 </r>
       <r>     6.7306     0.6934    32.3046 </r>
       <r>     6.7931     1.7307    32.4127 </r>
       <r>     6.8555     1.5224    32.5077 </r>
       <r>     6.9180     1.5091    32.6020 </r>
       <r>     6.9804     2.2978    32.7455 </r>
       <r>     7.0429     2.2144    32.8838 </r>
       <r>     7.1053     1.8696    33.0006 </r>
       <r>     7.1677     1.2983    33.0817 </r>
       <r>     7.2302     3.6914    33.3122 </r>
       <r>     7.2926     3.0584    33.5032 </r>
       <r>     7.3551     3.5133    33.7226 </r>
       <r>     7.4175     2.5139    33.8797 </r>
       <r>     7.4799     2.8069    34.0550 </r>
       <r>     7.5424     3.3405    34.2636 </r>
       <r>     7.6048     3.6635    34.4925 </r>
       <r>     7.6673     4.6342    34.7820 </r>
       <r>     7.7297     5.1412    35.1031 </r>
       <r>     7.7921     4.7645    35.4007 </r>
       <r>     7.8546     4.4061    35.6759 </r>
       <r>     7.9170     6.5944    36.0877 </r>
       <r>     7.9795     6.1746    36.4734 </r>
       <r>     8.0419     5.1324    36.7940 </r>
       <r>     8.1043     5.9703    37.1669 </r>
       <r>     8.1668     6.1212    37.5491 </r>
       <r>     8.2292     6.2759    37.9411 </r>
       <r>     8.2917     5.4364    38.2806 </r>
       <r>     8.3541     5.5586    38.6277 </r>
       <r>     8.4166     6.0737    39.0071 </r>
       <r>     8.4790     5.6747    39.3614 </r>
       <r>     8.5414     3.9185    39.6061 </r>
       <r>     8.6039     4.2827    39.8736 </r>
       <r>     8.6663     4.6378    40.1632 </r>
       <r>     8.7288     4.7398    40.4593 </r>
       <r>     8.7912     4.6925    40.7524 </r>
       <r>     8.8536     4.6512    41.0429 </r>
       <r>     8.9161     3.8702    41.2847 </r>
       <r>     8.9785     6.9093    41.7162 </r>
       <r>     9.0410     9.0211    42.2795 </r>
       <r>     9.1034     8.8749    42.8339 </r>
       <r>     9.1658     6.9276    43.2665 </r>
       <r>     9.2283     7.8715    43.7581 </r>
       <r>     9.2907     6.2736    44.1499 </r>
       <r>     9.3532     5.8863    44.5174 </r>
       <r>     9.4156     5.4518    44.8579 </r>
       <r>     9.4780     3.9463    45.1045 </r>
       <r>     9.5405     5.5458    45.4508 </r>
       <r>     9.6029     4.9964    45.7629 </r>
       <r>     9.6654     6.3716    46.1608 </r>
       <r>     9.7278     3.9834    46.4097 </r>
       <r>     9.7903     3.1125    46.6041 </r>
       <r>     9.8527     3.1157    46.7987 </r>
       <r>     9.9151     2.8618    46.9775 </r>
       <r>     9.9776     2.3159    47.1221 </r>
       <r>    10.0400     1.7483    47.2314 </r>
       <r>    10.1025     2.0998    47.3625 </r>
       <r>    10.1649     1.5867    47.4616 </r>
       <r>    10.2273     1.4039    47.5493 </r>
       <r>    10.2898     1.3419    47.6331 </r>
       <r>    10.3522     0.8010    47.6832 </r>
       <r>    10.4147     1.5686    47.7811 </r>
       <r>    10.4771     1.4518    47.8718 </r>
       <r>    10.5395     0.6763    47.9140 </r>
       <r>    10.6020     0.3198    47.9340 </r>
       <r>    10.6644     0.2251    47.9481 </r>
       <r>    10.7269     0.1808    47.9593 </r>
       <r>    10.7893     0.0965    47.9654 </r>
       <r>    10.8517     0.1996    47.9778 </r>
       <r>    10.9142     0.3547    48.0000 </r>
       <r>    10.9766     0.0000    48.0000 </r>
       <r>    11.0391     0.0000    48.0000 </r>
       <r>    11.1015     0.0000    48.0000 </r>
       <r>    11.1640     0.0000    48.0000 </r>
       <r>    11.2264     0.0000    48.0000 </r>
       <r>    11.2888     0.0000    48.0000 </r>
       <r>    11.3513     0.0000    48.0000 </r>
       <r>    11.4137     0.0000    48.0000 </r>
       <r>    11.4762     0.0000    48.0000 </r>
       <r>    11.5386     0.0000    48.0000 </r>
       <r>    11.6010     0.0000    48.0000 </r>
       <r>    11.6635     0.0000    48.0000 </r>
       <r>    11.7259     0.0000    48.0000 </r>
      </set>
     </set>
    </array>
   </total>
  </dos>
 </calculation>
 <structure name="finalpos" >
  <crystal>
   <varray name="basis" >
    <v>      -2.72185119       2.72185119       5.44370237 </v>
    <v>       2.72185119      -5.44370237       2.72185119 </v>
    <v>       2.72185119       2.72185119       0.00000000 </v>
   </varray>
   <i name="volume">    161.31810740 </i>
   <varray name="rec_basis" >
    <v>      -0.04592463       0.04592463       0.13777388 </v>
    <v>       0.09184925      -0.09184925       0.09184925 </v>
    <v>       0.22962313       0.13777388       0.04592463 </v>
   </varray>
  </crystal>
  <varray name="positions" >
   <v>       0.00149989       0.00000000       0.00000000 </v>
   <v>       0.50000000       0.00000000       0.50000000 </v>
   <v>       0.25000000       0.50000000       0.75000000 </v>
   <v>       0.75000000       0.50000000       0.25000000 </v>
   <v>       0.18750000       0.12500000       0.56250000 </v>
   <v>       0.68750000       0.12500000       0.06250000 </v>
   <v>       0.43750000       0.62500000       0.31250000 </v>
   <v>       0.93750000       0.62500000       0.81250000 </v>
  </varray>
 </structure>
</modeling>
