8    
2    

1    
  0.0097014250014533   0.0024253562503633   0.0000000000000000
  -0.0236406500   -0.0016881700   -0.0000000000
   0.0060735100   -0.0001048300    0.0000000000
   0.0039045500   -0.0000042900    0.0000000000
   0.0060304000   -0.0001003900    0.0000000000
   0.0076389100    0.0009843500    0.0000000000
  -0.0037640300   -0.0000007700   -0.0000000000
  -0.0037654100   -0.0000015600   -0.0000000000
   0.0075227200    0.0009156500    0.0000000000

5    
  0.0097014250014533   0.0024253562503633   0.0000000000000000
   0.0075394000    0.0009206600    0.0000000000
   0.0076559500    0.0009825300    0.0000000000
  -0.0037713000    0.0000005300   -0.0000000000
  -0.0037716800    0.0000005800   -0.0000000000
  -0.0208580700   -0.0020388400   -0.0000000000
   0.0046806600    0.0000688100    0.0000000000
   0.0038632900   -0.0000017100    0.0000000000
   0.0046617500    0.0000674300    0.0000000000
