phonopy:
  version: "2.33.3"
  calculator: vasp
  frequency_unit_conversion_factor: 15.633302
  symmetry_tolerance: 1.00000e-05
  configuration:
    dim: "4 0 0 0 1 0 0 0 1"

physical_unit:
  atomic_mass: "AMU"
  length: "angstrom"
  force: "eV/angstrom"
  force_constants: "eV/angstrom^2"

space_group:
  type: "Pm-3m"
  number: 221
  Hall_symbol: "-P 4 2 3"

supercell_matrix:
- [   4,   0,   0 ]
- [   0,   1,   0 ]
- [   0,   0,   1 ]

primitive_cell:
  lattice:
  - [     4.143698340000000,     0.000000000000000,     0.000000000000000 ] # a
  - [     0.000000000000001,     4.143698340000000,     0.000000000000000 ] # b
  - [     0.000000000000000,     0.000000000000000,     4.143698340000000 ] # c
  points:
  - symbol: Cs # 1
    coordinates: [  0.000000000000000,  0.000000000000000,  0.000000000000000 ]
    mass: 132.905452
  - symbol: Cl # 2
    coordinates: [  0.500000000000000,  0.500000000000000,  0.500000000000000 ]
    mass: 35.453000
  reciprocal_lattice: # without 2pi
  - [     0.241330308808146,    -0.000000000000000,     0.000000000000000 ] # a*
  - [     0.000000000000000,     0.241330308808146,     0.000000000000000 ] # b*
  - [    -0.000000000000000,    -0.000000000000000,     0.241330308808146 ] # c*

unit_cell:
  lattice:
  - [     4.143698340000000,     0.000000000000000,     0.000000000000000 ] # a
  - [     0.000000000000001,     4.143698340000000,     0.000000000000000 ] # b
  - [     0.000000000000000,     0.000000000000000,     4.143698340000000 ] # c
  points:
  - symbol: Cs # 1
    coordinates: [  0.000000000000000,  0.000000000000000,  0.000000000000000 ]
    mass: 132.905452
    reduced_to: 1
  - symbol: Cl # 2
    coordinates: [  0.500000000000000,  0.500000000000000,  0.500000000000000 ]
    mass: 35.453000
    reduced_to: 2

supercell:
  lattice:
  - [    16.574793360000001,     0.000000000000000,     0.000000000000001 ] # a
  - [     0.000000000000001,     4.143698340000000,     0.000000000000000 ] # b
  - [     0.000000000000000,     0.000000000000000,     4.143698340000000 ] # c
  points:
  - symbol: Cs # 1
    coordinates: [  0.000000000000000,  0.000000000000000,  0.000000000000000 ]
    mass: 132.905452
    reduced_to: 1
  - symbol: Cs # 2
    coordinates: [  0.250000000000000,  0.000000000000000,  0.000000000000000 ]
    mass: 132.905452
    reduced_to: 1
  - symbol: Cs # 3
    coordinates: [  0.500000000000000,  0.000000000000000,  0.000000000000000 ]
    mass: 132.905452
    reduced_to: 1
  - symbol: Cs # 4
    coordinates: [  0.750000000000000,  0.000000000000000,  0.000000000000000 ]
    mass: 132.905452
    reduced_to: 1
  - symbol: Cl # 5
    coordinates: [  0.125000000000000,  0.500000000000000,  0.500000000000000 ]
    mass: 35.453000
    reduced_to: 5
  - symbol: Cl # 6
    coordinates: [  0.375000000000000,  0.500000000000000,  0.500000000000000 ]
    mass: 35.453000
    reduced_to: 5
  - symbol: Cl # 7
    coordinates: [  0.625000000000000,  0.500000000000000,  0.500000000000000 ]
    mass: 35.453000
    reduced_to: 5
  - symbol: Cl # 8
    coordinates: [  0.875000000000000,  0.500000000000000,  0.500000000000000 ]
    mass: 35.453000
    reduced_to: 5

force_constants:
  format: "compact"
  shape: [ 2, 8 ]
  elements:
  - # (1, 1)
    - [     2.436822425206458,     0.000000000000000,     0.000000000000000 ]
    - [    -0.000000000000001,     0.696050322399905,    -0.000000000000000 ]
    - [    -0.000000000000001,     0.000000000000000,     0.696050322399905 ]
  - # (1, 2)
    - [    -0.623821242662124,     0.000000000000000,    -0.000000000000000 ]
    - [     0.000000000000000,     0.042307186824463,    -0.000000000000000 ]
    - [     0.000000000000000,     0.000000000000000,     0.042307186824463 ]
  - # (1, 3)
    - [    -0.402471801762637,     0.000000000000000,    -0.000000000000000 ]
    - [     0.000000000000000,     0.001768812313390,    -0.000000000000000 ]
    - [     0.000000000000000,     0.000000000000000,     0.001768812313390 ]
  - # (1, 4)
    - [    -0.623821242662124,     0.000000000000000,    -0.000000000000000 ]
    - [     0.000000000000000,     0.042307186824463,    -0.000000000000000 ]
    - [     0.000000000000000,     0.000000000000000,     0.042307186824463 ]
  - # (1, 5)
    - [    -0.781412524331670,    -0.000000000000000,    -0.000000000000000 ]
    - [     0.000000000000001,    -0.391695034433683,     0.000000000000000 ]
    - [     0.000000000000000,    -0.000000000000000,    -0.391695034433682 ]
  - # (1, 6)
    - [     0.388058455271884,    -0.000000000000000,     0.000000000000000 ]
    - [    -0.000000000000000,     0.000480341805384,    -0.000000000000000 ]
    - [    -0.000000000000000,     0.000000000000000,     0.000480341805384 ]
  - # (1, 7)
    - [     0.388058455271884,    -0.000000000000000,     0.000000000000000 ]
    - [    -0.000000000000000,     0.000480341805384,    -0.000000000000000 ]
    - [    -0.000000000000000,     0.000000000000000,     0.000480341805384 ]
  - # (1, 8)
    - [    -0.781412524331670,    -0.000000000000000,    -0.000000000000000 ]
    - [     0.000000000000000,    -0.391695034433683,     0.000000000000000 ]
    - [     0.000000000000000,    -0.000000000000000,    -0.391695034433682 ]
  - # (2, 1)
    - [    -0.783150413352868,    -0.000000000000000,    -0.000000000000000 ]
    - [     0.000000000000000,    -0.392352669780969,    -0.000000000000000 ]
    - [     0.000000000000000,     0.000000000000000,    -0.392352669780968 ]
  - # (2, 2)
    - [    -0.783150413352868,    -0.000000000000000,    -0.000000000000000 ]
    - [     0.000000000000000,    -0.392352669780969,    -0.000000000000000 ]
    - [     0.000000000000000,     0.000000000000000,    -0.392352669780968 ]
  - # (2, 3)
    - [     0.388756290899019,     0.000000000000000,     0.000000000000000 ]
    - [    -0.000000000000000,    -0.000228832362222,    -0.000000000000000 ]
    - [    -0.000000000000000,     0.000000000000000,    -0.000228832362222 ]
  - # (2, 4)
    - [     0.388756290899019,    -0.000000000000000,     0.000000000000000 ]
    - [    -0.000000000000000,    -0.000228832362222,    -0.000000000000000 ]
    - [    -0.000000000000000,     0.000000000000000,    -0.000228832362222 ]
  - # (2, 5)
    - [     2.150000643913178,     0.000000000000000,     0.000000000000000 ]
    - [    -0.000000000000001,     0.840635267373442,     0.000000000000000 ]
    - [    -0.000000000000000,    -0.000000000000000,     0.840635267373441 ]
  - # (2, 6)
    - [    -0.481496790347834,    -0.000000000000000,    -0.000000000000000 ]
    - [     0.000000000000000,    -0.028086595521708,    -0.000000000000000 ]
    - [     0.000000000000000,     0.000000000000000,    -0.028086595521708 ]
  - # (2, 7)
    - [    -0.398218818309812,     0.000000000000000,    -0.000000000000000 ]
    - [     0.000000000000000,     0.000705051061981,     0.000000000000000 ]
    - [     0.000000000000000,    -0.000000000000000,     0.000705051061981 ]
  - # (2, 8)
    - [    -0.481496790347834,    -0.000000000000000,    -0.000000000000000 ]
    - [     0.000000000000000,    -0.028086595521708,    -0.000000000000000 ]
    - [     0.000000000000000,     0.000000000000000,    -0.028086595521708 ]