8    
2    

1    
 -0.0040824829046386  -0.0081649658092773   0.0040824829046386
   0.0542514600    0.1109901100   -0.0542514600
   0.0033046800   -0.0074767200   -0.0000101000
  -0.0018145300    0.0137988300    0.0018145300
   0.0000101000   -0.0074767200   -0.0033046800
  -0.0217968900   -0.0272602900   -0.0140309100
  -0.0424578500   -0.0461608600    0.0424578500
   0.0140309100   -0.0272602900    0.0217968900
  -0.0055278800   -0.0091540500    0.0055278800

1    
  0.0040824829046386   0.0081649658092773  -0.0040824829046386
  -0.0521007800   -0.1099212500    0.0521007800
  -0.0033183800    0.0074786200   -0.0000216500
   0.0018298500   -0.0138018600   -0.0018298500
   0.0000216500    0.0074786200    0.0033183800
   0.0220040400    0.0273848300    0.0145241200
   0.0407669200    0.0446795400   -0.0407669200
  -0.0145241200    0.0273848300   -0.0220040400
   0.0053208300    0.0093166700   -0.0053208300
