8    
2    

1    
  0.0030151134457776   0.0090453403373329   0.0030151134457776
  -0.0069054400   -0.0154774000   -0.0018524100
   0.0009229900    0.0028396700   -0.0002535000
   0.0027149300    0.0027499800   -0.0000048700
   0.0009387500    0.0028017600   -0.0002477900
   0.0018400000    0.0022249800    0.0006146900
  -0.0021488200   -0.0020945100    0.0000015400
   0.0017208300    0.0021147400    0.0005648100
   0.0009167600    0.0048407600    0.0011775200

5    
  0.0030151134457776   0.0090453403373329   0.0030151134457776
   0.0017363300    0.0021263500    0.0005764000
   0.0009419900    0.0048598200    0.0011870600
   0.0018538400    0.0022307300    0.0006222400
  -0.0021502400   -0.0021018700    0.0000105700
  -0.0064546400   -0.0137124100   -0.0024097200
   0.0006064700    0.0018452200   -0.0000547800
   0.0028433900    0.0029228900    0.0001213900
   0.0006228600    0.0018292700   -0.0000531700
