phonopy:
  version: "2.33.3"
  calculator: vasp
  frequency_unit_conversion_factor: 15.633302
  symmetry_tolerance: 1.00000e-05
  configuration:
    dim: "2 -1 0 2 1 0 0 0 1"

physical_unit:
  atomic_mass: "AMU"
  length: "angstrom"
  force: "eV/angstrom"
  force_constants: "eV/angstrom^2"

space_group:
  type: "Pm-3m"
  number: 221
  Hall_symbol: "-P 4 2 3"

supercell_matrix:
- [   2,  -1,   0 ]
- [   2,   1,   0 ]
- [   0,   0,   1 ]

primitive_cell:
  lattice:
  - [     4.143698340000000,     0.000000000000000,     0.000000000000000 ] # a
  - [     0.000000000000001,     4.143698340000000,     0.000000000000000 ] # b
  - [     0.000000000000000,     0.000000000000000,     4.143698340000000 ] # c
  points:
  - symbol: Cs # 1
    coordinates: [  0.000000000000000,  0.000000000000000,  0.000000000000000 ]
    mass: 132.905452
  - symbol: Cl # 2
    coordinates: [  0.500000000000000,  0.500000000000000,  0.500000000000000 ]
    mass: 35.453000
  reciprocal_lattice: # without 2pi
  - [     0.241330308808146,    -0.000000000000000,     0.000000000000000 ] # a*
  - [     0.000000000000000,     0.241330308808146,     0.000000000000000 ] # b*
  - [    -0.000000000000000,    -0.000000000000000,     0.241330308808146 ] # c*

unit_cell:
  lattice:
  - [     4.143698340000000,     0.000000000000000,     0.000000000000000 ] # a
  - [     0.000000000000001,     4.143698340000000,     0.000000000000000 ] # b
  - [     0.000000000000000,     0.000000000000000,     4.143698340000000 ] # c
  points:
  - symbol: Cs # 1
    coordinates: [  0.000000000000000,  0.000000000000000,  0.000000000000000 ]
    mass: 132.905452
    reduced_to: 1
  - symbol: Cl # 2
    coordinates: [  0.500000000000000,  0.500000000000000,  0.500000000000000 ]
    mass: 35.453000
    reduced_to: 2

supercell:
  lattice:
  - [     8.287396680000002,     8.287396680000001,     0.000000000000001 ] # a
  - [    -4.143698339999999,     4.143698340000000,    -0.000000000000000 ] # b
  - [     0.000000000000000,     0.000000000000000,     4.143698340000000 ] # c
  points:
  - symbol: Cs # 1
    coordinates: [  0.000000000000000,  0.000000000000000,  0.000000000000000 ]
    mass: 132.905452
    reduced_to: 1
  - symbol: Cs # 2
    coordinates: [  0.250000000000000,  0.500000000000000,  0.000000000000000 ]
    mass: 132.905452
    reduced_to: 1
  - symbol: Cs # 3
    coordinates: [  0.500000000000000,  0.000000000000000,  0.000000000000000 ]
    mass: 132.905452
    reduced_to: 1
  - symbol: Cs # 4
    coordinates: [  0.750000000000000,  0.500000000000000,  0.000000000000000 ]
    mass: 132.905452
    reduced_to: 1
  - symbol: Cl # 5
    coordinates: [  0.250000000000000,  1.000000000000000,  0.500000000000000 ]
    mass: 35.453000
    reduced_to: 5
  - symbol: Cl # 6
    coordinates: [  0.500000000000000,  0.500000000000000,  0.500000000000000 ]
    mass: 35.453000
    reduced_to: 5
  - symbol: Cl # 7
    coordinates: [  0.750000000000000,  0.000000000000000,  0.500000000000000 ]
    mass: 35.453000
    reduced_to: 5
  - symbol: Cl # 8
    coordinates: [  0.000000000000000,  0.500000000000000,  0.500000000000000 ]
    mass: 35.453000
    reduced_to: 5

force_constants:
  format: "compact"
  shape: [ 2, 8 ]
  elements:
  - # (1, 1)
    - [     1.638692901230353,     0.217194149333616,     0.000000000000000 ]
    - [     0.217194149333615,     1.638692901230353,     0.000000000000000 ]
    - [    -0.000000000000000,    -0.000000000000000,     0.614374892790232 ]
  - # (1, 2)
    - [    -0.312230167099798,     0.001165171746660,    -0.000000000000000 ]
    - [     0.001165171746660,    -0.312230167099798,    -0.000000000000000 ]
    - [     0.000000000000000,    -0.000000000000000,     0.083129542057864 ]
  - # (1, 3)
    - [    -0.229469392260814,    -0.223657007315716,    -0.000000000000000 ]
    - [    -0.223657007315716,    -0.229469392260814,    -0.000000000000000 ]
    - [     0.000000000000000,     0.000000000000000,     0.001615196272903 ]
  - # (1, 4)
    - [    -0.312230167099798,     0.001165171746660,    -0.000000000000000 ]
    - [     0.001165171746660,    -0.312230167099798,    -0.000000000000000 ]
    - [     0.000000000000000,     0.000000000000000,     0.083129542057864 ]
  - # (1, 5)
    - [    -0.196060823458514,    -0.131478676384516,    -0.000000000000000 ]
    - [    -0.131478676384516,    -0.196060823458514,     0.000000000000000 ]
    - [    -0.000000000000000,     0.000000000000000,    -0.195597947011212 ]
  - # (1, 6)
    - [     0.171416021086630,     0.180422315704840,     0.000000000000000 ]
    - [     0.180422315704840,     0.171416021086630,     0.000000000000000 ]
    - [    -0.000000000000000,    -0.000000000000000,    -0.000510760217715 ]
  - # (1, 7)
    - [    -0.196060823458514,    -0.131478676384516,    -0.000000000000000 ]
    - [    -0.131478676384516,    -0.196060823458514,     0.000000000000000 ]
    - [     0.000000000000000,     0.000000000000000,    -0.195597947011212 ]
  - # (1, 8)
    - [    -0.564055061470952,     0.086666722396774,    -0.000000000000000 ]
    - [     0.086666722396775,    -0.564055061470952,     0.000000000000000 ]
    - [     0.000000000000000,     0.000000000000000,    -0.390539202313934 ]
  - # (2, 1)
    - [    -0.196532198756843,    -0.132943380807557,    -0.000000000000000 ]
    - [    -0.132943380807557,    -0.196532198756843,     0.000000000000000 ]
    - [    -0.000000000000000,    -0.000000000000000,    -0.198771956935582 ]
  - # (2, 2)
    - [    -0.565379638496600,     0.084318966623302,     0.000000000000000 ]
    - [     0.084318966623302,    -0.565379638496600,     0.000000000000000 ]
    - [     0.000000000000000,    -0.000000000000000,    -0.393703262363933 ]
  - # (2, 3)
    - [    -0.196532198756843,    -0.132943380807557,    -0.000000000000000 ]
    - [    -0.132943380807557,    -0.196532198756843,     0.000000000000000 ]
    - [     0.000000000000000,     0.000000000000000,    -0.198771956935582 ]
  - # (2, 4)
    - [     0.172272539438740,     0.180293796494214,     0.000000000000000 ]
    - [     0.180293796494214,     0.172272539438740,     0.000000000000000 ]
    - [     0.000000000000000,    -0.000000000000000,    -0.003505672403406 ]
  - # (2, 5)
    - [     1.437864222346654,     0.234299227111774,     0.000000000000000 ]
    - [     0.234299227111774,     1.437864222346654,    -0.000000000000000 ]
    - [    -0.000000000000000,     0.000000000000000,     0.799213708981531 ]
  - # (2, 6)
    - [    -0.203021797026321,    -0.000279840216687,    -0.000000000000000 ]
    - [    -0.000279840216687,    -0.203021797026321,    -0.000000000000000 ]
    - [     0.000000000000000,    -0.000000000000000,     0.017901482305944 ]
  - # (2, 7)
    - [    -0.245649131722464,    -0.232465548180801,    -0.000000000000000 ]
    - [    -0.232465548180801,    -0.245649131722464,    -0.000000000000000 ]
    - [    -0.000000000000000,     0.000000000000000,    -0.040260508330125 ]
  - # (2, 8)
    - [    -0.203021797026321,    -0.000279840216687,    -0.000000000000000 ]
    - [    -0.000279840216687,    -0.203021797026321,    -0.000000000000000 ]
    - [     0.000000000000000,    -0.000000000000000,     0.017901482305944 ]