phonopy:
  version: "2.33.3"
  calculator: vasp
  frequency_unit_conversion_factor: 15.633302
  symmetry_tolerance: 1.00000e-05
  configuration:
    dim: "1 1 0 1 -1 1 -1 -1 -2"

physical_unit:
  atomic_mass: "AMU"
  length: "angstrom"
  force: "eV/angstrom"
  force_constants: "eV/angstrom^2"

space_group:
  type: "Fd-3m"
  number: 227
  Hall_symbol: "F 4d 2 3 -1d"

supercell_matrix:
- [   1,   1,   0 ]
- [   1,  -1,   1 ]
- [  -1,  -1,  -2 ]

primitive_cell:
  lattice:
  - [     0.000000000000000,     2.721851186500000,     2.721851186500000 ] # a
  - [     2.721851186499999,     0.000000000000000,     2.721851186500000 ] # b
  - [     2.721851186499999,     2.721851186499999,     0.000000000000000 ] # c
  points:
  - symbol: Si # 1
    coordinates: [  0.000000000000000,  0.000000000000000,  0.000000000000000 ]
    mass: 28.085500
  - symbol: Si # 2
    coordinates: [  0.250000000000000,  0.250000000000000,  0.250000000000000 ]
    mass: 28.085500
  reciprocal_lattice: # without 2pi
  - [    -0.183698507280607,     0.183698507280607,     0.183698507280607 ] # a*
  - [     0.183698507280607,    -0.183698507280607,     0.183698507280607 ] # b*
  - [     0.183698507280607,     0.183698507280607,    -0.183698507280607 ] # c*

unit_cell:
  lattice:
  - [     0.000000000000000,     2.721851186500000,     2.721851186500000 ] # a
  - [     2.721851186500000,     0.000000000000000,     2.721851186500000 ] # b
  - [     2.721851186499999,     2.721851186499999,     0.000000000000000 ] # c
  points:
  - symbol: Si # 1
    coordinates: [  0.000000000000000,  0.000000000000000,  0.000000000000000 ]
    mass: 28.085500
    reduced_to: 1
  - symbol: Si # 2
    coordinates: [  0.250000000000000,  0.250000000000000,  0.250000000000000 ]
    mass: 28.085500
    reduced_to: 2

supercell:
  lattice:
  - [     0.000000000000000,     0.000000000000000,     5.443702373000000 ] # a
  - [    -5.443702372999999,     0.000000000000000,     0.000000000000000 ] # b
  - [    -2.721851186499999,    -5.443702372999999,     2.721851186499999 ] # c
  points:
  - symbol: Si # 1
    coordinates: [  0.000000000000000,  0.000000000000000,  0.000000000000000 ]
    mass: 28.085500
    reduced_to: 1
  - symbol: Si # 2
    coordinates: [  0.750000000000000,  0.250000000000000,  0.500000000000000 ]
    mass: 28.085500
    reduced_to: 1
  - symbol: Si # 3
    coordinates: [  0.500000000000000,  0.500000000000000,  0.000000000000000 ]
    mass: 28.085500
    reduced_to: 1
  - symbol: Si # 4
    coordinates: [  0.250000000000000,  0.750000000000000,  0.500000000000000 ]
    mass: 28.085500
    reduced_to: 1
  - symbol: Si # 5
    coordinates: [  0.375000000000000,  0.875000000000000,  0.750000000000000 ]
    mass: 28.085500
    reduced_to: 5
  - symbol: Si # 6
    coordinates: [  0.125000000000000,  0.125000000000000,  0.250000000000000 ]
    mass: 28.085500
    reduced_to: 5
  - symbol: Si # 7
    coordinates: [  0.875000000000000,  0.375000000000000,  0.750000000000000 ]
    mass: 28.085500
    reduced_to: 5
  - symbol: Si # 8
    coordinates: [  0.625000000000000,  0.625000000000000,  0.250000000000000 ]
    mass: 28.085500
    reduced_to: 5

force_constants:
  format: "compact"
  shape: [ 2, 8 ]
  elements:
  - # (1, 1)
    - [    13.025436050100843,    -0.000000000000008,    -0.000000000000000 ]
    - [     0.000000000000000,    13.528002759606990,    -0.000000000000002 ]
    - [    -0.000000000000000,     0.000000000000002,    13.025436050100842 ]
  - # (1, 2)
    - [     0.404870648232713,     0.000000000000000,     0.406285228559171 ]
    - [     0.000000000000000,    -0.915823798245870,    -0.000000000000000 ]
    - [    -0.406285228559171,     0.000000000000000,     0.404870648232713 ]
  - # (1, 3)
    - [    -0.446343571440211,    -0.000000000000001,     0.000000000000000 ]
    - [    -0.000000000000000,     1.690190176218448,     0.000000000000000 ]
    - [     0.000000000000000,    -0.000000000000000,    -0.446343571440211 ]
  - # (1, 4)
    - [     0.404870648232713,     0.000000000000000,    -0.406285228559171 ]
    - [    -0.000000000000000,    -0.915823798245870,    -0.000000000000000 ]
    - [     0.406285228559171,     0.000000000000000,     0.404870648232713 ]
  - # (1, 5)
    - [    -3.347208749967730,    -2.215859860606276,    -2.413591858230273 ]
    - [    -2.215747490264300,    -3.346636181740314,    -2.215747490264300 ]
    - [    -2.413591858230272,    -2.215859860606278,    -3.347208749967732 ]
  - # (1, 6)
    - [    -3.347208749967730,    -2.215859860606276,     2.413591858230273 ]
    - [    -2.215747490264302,    -3.346636181740315,     2.215747490264302 ]
    - [     2.413591858230273,     2.215859860606277,    -3.347208749967732 ]
  - # (1, 7)
    - [    -3.347208749967734,     2.215859860606280,    -2.413591858230275 ]
    - [     2.215747490264301,    -3.346636181740315,     2.215747490264301 ]
    - [    -2.413591858230273,     2.215859860606278,    -3.347208749967732 ]
  - # (1, 8)
    - [    -3.347208749967733,     2.215859860606280,     2.413591858230275 ]
    - [     2.215747490264299,    -3.346636181740315,    -2.215747490264300 ]
    - [     2.413591858230272,    -2.215859860606278,    -3.347208749967732 ]
  - # (2, 1)
    - [    -3.347208749967730,    -2.215859860606276,    -2.413591858230273 ]
    - [    -2.215747490264300,    -3.346636181740314,    -2.215747490264300 ]
    - [    -2.413591858230272,    -2.215859860606278,    -3.347208749967732 ]
  - # (2, 2)
    - [    -3.347208749967733,     2.215859860606280,     2.413591858230275 ]
    - [     2.215747490264299,    -3.346636181740315,    -2.215747490264300 ]
    - [     2.413591858230272,    -2.215859860606278,    -3.347208749967732 ]
  - # (2, 3)
    - [    -3.347208749967734,     2.215859860606280,    -2.413591858230275 ]
    - [     2.215747490264301,    -3.346636181740315,     2.215747490264301 ]
    - [    -2.413591858230273,     2.215859860606278,    -3.347208749967732 ]
  - # (2, 4)
    - [    -3.347208749967730,    -2.215859860606276,     2.413591858230273 ]
    - [    -2.215747490264302,    -3.346636181740315,     2.215747490264302 ]
    - [     2.413591858230273,     2.215859860606277,    -3.347208749967732 ]
  - # (2, 5)
    - [    13.025436050100843,    -0.000000000000008,    -0.000000000000000 ]
    - [     0.000000000000000,    13.528002759606990,    -0.000000000000002 ]
    - [    -0.000000000000000,     0.000000000000002,    13.025436050100842 ]
  - # (2, 6)
    - [     0.404870648232713,     0.000000000000000,    -0.406285228559171 ]
    - [    -0.000000000000000,    -0.915823798245870,    -0.000000000000000 ]
    - [     0.406285228559171,     0.000000000000000,     0.404870648232713 ]
  - # (2, 7)
    - [    -0.446343571440211,    -0.000000000000001,     0.000000000000000 ]
    - [    -0.000000000000000,     1.690190176218448,     0.000000000000000 ]
    - [     0.000000000000000,    -0.000000000000000,    -0.446343571440211 ]
  - # (2, 8)
    - [     0.404870648232713,     0.000000000000000,     0.406285228559171 ]
    - [     0.000000000000000,    -0.915823798245870,    -0.000000000000000 ]
    - [    -0.406285228559171,     0.000000000000000,     0.404870648232713 ]