<?xml version="1.0" encoding="ISO-8859-1"?>
<modeling>
 <generator>
  <i name="program" type="string">vasp </i>
  <i name="version" type="string">6.4.3  </i>
  <i name="subversion" type="string">19Mar24 (build Jun 20 2024 15:56:09) complex                          parallel </i>
  <i name="platform" type="string">LinuxNV_CrayMPICH </i>
  <i name="date" type="string">2025 01 13 </i>
  <i name="time" type="string">18:01:01 </i>
 </generator>
 <incar>
  <i type="string" name="PREC">Accurate</i>
  <i type="int" name="IBRION">    -1</i>
  <i name="EDIFF">      0.00000001</i>
  <i type="int" name="NSW">     0</i>
  <i name="ENCUT">    500.00000000</i>
  <i type="logical" name="LREAL"> F  </i>
  <i type="int" name="ISMEAR">     0</i>
  <i name="SIGMA">      0.01000000</i>
  <i type="logical" name="LWAVE"> F  </i>
  <i type="logical" name="LCHARG"> F  </i>
 </incar>
 <primitive_cell>
  <structure name="primitive_cell" >
   <crystal>
    <varray name="basis" >
     <v>      -2.72185119       2.72185119       5.44370237 </v>
     <v>       2.72185119      -5.44370237       2.72185119 </v>
     <v>       2.72185119       2.72185119       0.00000000 </v>
    </varray>
    <i name="volume">    161.31810740 </i>
    <varray name="rec_basis" >
     <v>      -0.04592463       0.04592463       0.13777388 </v>
     <v>       0.09184925      -0.09184925       0.09184925 </v>
     <v>       0.22962313       0.13777388       0.04592463 </v>
    </varray>
   </crystal>
   <varray name="positions" >
    <v>       1.00000000       0.99850011       1.00000000 </v>
    <v>       0.50000000       0.00000000       0.50000000 </v>
    <v>       0.25000000       0.50000000       0.75000000 </v>
    <v>       0.75000000       0.50000000       0.25000000 </v>
    <v>       0.18750000       0.12500000       0.56250000 </v>
    <v>       0.68750000       0.12500000       0.06250000 </v>
    <v>       0.43750000       0.62500000       0.31250000 </v>
    <v>       0.93750000       0.62500000       0.81250000 </v>
   </varray>
  </structure>
  <varray name="primitive_index" >
   <v type="int" >        1 </v>
   <v type="int" >        2 </v>
   <v type="int" >        3 </v>
   <v type="int" >        4 </v>
   <v type="int" >        5 </v>
   <v type="int" >        6 </v>
   <v type="int" >        7 </v>
   <v type="int" >        8 </v>
  </varray>
 </primitive_cell>
 <kpoints>
  <generation param="Gamma">
   <v type="int" name="divisions">       6        7       11 </v>
   <v name="usershift">      0.00000000       0.00000000       0.00000000 </v>
   <v name="genvec1">      0.16666667      -0.00000000      -0.00000000 </v>
   <v name="genvec2">     -0.00000000       0.14285714       0.00000000 </v>
   <v name="genvec3">      0.00000000      -0.00000000       0.09090909 </v>
   <v name="shift">      0.00000000       0.00000000       0.00000000 </v>
  </generation>
  <varray name="kpointlist" >
   <v>       0.00000000       0.00000000       0.00000000 </v>
   <v>       0.16666667       0.00000000       0.00000000 </v>
   <v>       0.33333333       0.00000000       0.00000000 </v>
   <v>       0.50000000       0.00000000       0.00000000 </v>
   <v>       0.00000000       0.14285714       0.00000000 </v>
   <v>       0.16666667       0.14285714       0.00000000 </v>
   <v>       0.33333333       0.14285714       0.00000000 </v>
   <v>       0.50000000       0.14285714       0.00000000 </v>
   <v>      -0.33333333       0.14285714       0.00000000 </v>
   <v>      -0.16666667       0.14285714       0.00000000 </v>
   <v>       0.00000000       0.28571429       0.00000000 </v>
   <v>       0.16666667       0.28571429       0.00000000 </v>
   <v>       0.33333333       0.28571429       0.00000000 </v>
   <v>       0.50000000       0.28571429       0.00000000 </v>
   <v>      -0.33333333       0.28571429       0.00000000 </v>
   <v>      -0.16666667       0.28571429       0.00000000 </v>
   <v>       0.00000000       0.42857143       0.00000000 </v>
   <v>       0.16666667       0.42857143       0.00000000 </v>
   <v>       0.33333333       0.42857143       0.00000000 </v>
   <v>       0.50000000       0.42857143       0.00000000 </v>
   <v>      -0.33333333       0.42857143       0.00000000 </v>
   <v>      -0.16666667       0.42857143       0.00000000 </v>
   <v>       0.00000000       0.00000000       0.09090909 </v>
   <v>       0.16666667       0.00000000       0.09090909 </v>
   <v>       0.33333333       0.00000000       0.09090909 </v>
   <v>       0.50000000       0.00000000       0.09090909 </v>
   <v>      -0.33333333       0.00000000       0.09090909 </v>
   <v>      -0.16666667       0.00000000       0.09090909 </v>
   <v>       0.00000000       0.14285714       0.09090909 </v>
   <v>       0.16666667       0.14285714       0.09090909 </v>
   <v>       0.33333333       0.14285714       0.09090909 </v>
   <v>       0.50000000       0.14285714       0.09090909 </v>
   <v>      -0.33333333       0.14285714       0.09090909 </v>
   <v>      -0.16666667       0.14285714       0.09090909 </v>
   <v>       0.00000000       0.28571429       0.09090909 </v>
   <v>       0.16666667       0.28571429       0.09090909 </v>
   <v>       0.33333333       0.28571429       0.09090909 </v>
   <v>       0.50000000       0.28571429       0.09090909 </v>
   <v>      -0.33333333       0.28571429       0.09090909 </v>
   <v>      -0.16666667       0.28571429       0.09090909 </v>
   <v>       0.00000000       0.42857143       0.09090909 </v>
   <v>       0.16666667       0.42857143       0.09090909 </v>
   <v>       0.33333333       0.42857143       0.09090909 </v>
   <v>       0.50000000       0.42857143       0.09090909 </v>
   <v>      -0.33333333       0.42857143       0.09090909 </v>
   <v>      -0.16666667       0.42857143       0.09090909 </v>
   <v>       0.00000000      -0.42857143       0.09090909 </v>
   <v>       0.16666667      -0.42857143       0.09090909 </v>
   <v>       0.33333333      -0.42857143       0.09090909 </v>
   <v>       0.50000000      -0.42857143       0.09090909 </v>
   <v>      -0.33333333      -0.42857143       0.09090909 </v>
   <v>      -0.16666667      -0.42857143       0.09090909 </v>
   <v>       0.00000000      -0.28571429       0.09090909 </v>
   <v>       0.16666667      -0.28571429       0.09090909 </v>
   <v>       0.33333333      -0.28571429       0.09090909 </v>
   <v>       0.50000000      -0.28571429       0.09090909 </v>
   <v>      -0.33333333      -0.28571429       0.09090909 </v>
   <v>      -0.16666667      -0.28571429       0.09090909 </v>
   <v>       0.00000000      -0.14285714       0.09090909 </v>
   <v>       0.16666667      -0.14285714       0.09090909 </v>
   <v>       0.33333333      -0.14285714       0.09090909 </v>
   <v>       0.50000000      -0.14285714       0.09090909 </v>
   <v>      -0.33333333      -0.14285714       0.09090909 </v>
   <v>      -0.16666667      -0.14285714       0.09090909 </v>
   <v>       0.00000000       0.00000000       0.18181818 </v>
   <v>       0.16666667       0.00000000       0.18181818 </v>
   <v>       0.33333333       0.00000000       0.18181818 </v>
   <v>       0.50000000       0.00000000       0.18181818 </v>
   <v>      -0.33333333       0.00000000       0.18181818 </v>
   <v>      -0.16666667       0.00000000       0.18181818 </v>
   <v>       0.00000000       0.14285714       0.18181818 </v>
   <v>       0.16666667       0.14285714       0.18181818 </v>
   <v>       0.33333333       0.14285714       0.18181818 </v>
   <v>       0.50000000       0.14285714       0.18181818 </v>
   <v>      -0.33333333       0.14285714       0.18181818 </v>
   <v>      -0.16666667       0.14285714       0.18181818 </v>
   <v>       0.00000000       0.28571429       0.18181818 </v>
   <v>       0.16666667       0.28571429       0.18181818 </v>
   <v>       0.33333333       0.28571429       0.18181818 </v>
   <v>       0.50000000       0.28571429       0.18181818 </v>
   <v>      -0.33333333       0.28571429       0.18181818 </v>
   <v>      -0.16666667       0.28571429       0.18181818 </v>
   <v>       0.00000000       0.42857143       0.18181818 </v>
   <v>       0.16666667       0.42857143       0.18181818 </v>
   <v>       0.33333333       0.42857143       0.18181818 </v>
   <v>       0.50000000       0.42857143       0.18181818 </v>
   <v>      -0.33333333       0.42857143       0.18181818 </v>
   <v>      -0.16666667       0.42857143       0.18181818 </v>
   <v>       0.00000000      -0.42857143       0.18181818 </v>
   <v>       0.16666667      -0.42857143       0.18181818 </v>
   <v>       0.33333333      -0.42857143       0.18181818 </v>
   <v>       0.50000000      -0.42857143       0.18181818 </v>
   <v>      -0.33333333      -0.42857143       0.18181818 </v>
   <v>      -0.16666667      -0.42857143       0.18181818 </v>
   <v>       0.00000000      -0.28571429       0.18181818 </v>
   <v>       0.16666667      -0.28571429       0.18181818 </v>
   <v>       0.33333333      -0.28571429       0.18181818 </v>
   <v>       0.50000000      -0.28571429       0.18181818 </v>
   <v>      -0.33333333      -0.28571429       0.18181818 </v>
   <v>      -0.16666667      -0.28571429       0.18181818 </v>
   <v>       0.00000000      -0.14285714       0.18181818 </v>
   <v>       0.16666667      -0.14285714       0.18181818 </v>
   <v>       0.33333333      -0.14285714       0.18181818 </v>
   <v>       0.50000000      -0.14285714       0.18181818 </v>
   <v>      -0.33333333      -0.14285714       0.18181818 </v>
   <v>      -0.16666667      -0.14285714       0.18181818 </v>
   <v>       0.00000000       0.00000000       0.27272727 </v>
   <v>       0.16666667       0.00000000       0.27272727 </v>
   <v>       0.33333333       0.00000000       0.27272727 </v>
   <v>       0.50000000       0.00000000       0.27272727 </v>
   <v>      -0.33333333       0.00000000       0.27272727 </v>
   <v>      -0.16666667       0.00000000       0.27272727 </v>
   <v>       0.00000000       0.14285714       0.27272727 </v>
   <v>       0.16666667       0.14285714       0.27272727 </v>
   <v>       0.33333333       0.14285714       0.27272727 </v>
   <v>       0.50000000       0.14285714       0.27272727 </v>
   <v>      -0.33333333       0.14285714       0.27272727 </v>
   <v>      -0.16666667       0.14285714       0.27272727 </v>
   <v>       0.00000000       0.28571429       0.27272727 </v>
   <v>       0.16666667       0.28571429       0.27272727 </v>
   <v>       0.33333333       0.28571429       0.27272727 </v>
   <v>       0.50000000       0.28571429       0.27272727 </v>
   <v>      -0.33333333       0.28571429       0.27272727 </v>
   <v>      -0.16666667       0.28571429       0.27272727 </v>
   <v>       0.00000000       0.42857143       0.27272727 </v>
   <v>       0.16666667       0.42857143       0.27272727 </v>
   <v>       0.33333333       0.42857143       0.27272727 </v>
   <v>       0.50000000       0.42857143       0.27272727 </v>
   <v>      -0.33333333       0.42857143       0.27272727 </v>
   <v>      -0.16666667       0.42857143       0.27272727 </v>
   <v>       0.00000000      -0.42857143       0.27272727 </v>
   <v>       0.16666667      -0.42857143       0.27272727 </v>
   <v>       0.33333333      -0.42857143       0.27272727 </v>
   <v>       0.50000000      -0.42857143       0.27272727 </v>
   <v>      -0.33333333      -0.42857143       0.27272727 </v>
   <v>      -0.16666667      -0.42857143       0.27272727 </v>
   <v>       0.00000000      -0.28571429       0.27272727 </v>
   <v>       0.16666667      -0.28571429       0.27272727 </v>
   <v>       0.33333333      -0.28571429       0.27272727 </v>
   <v>       0.50000000      -0.28571429       0.27272727 </v>
   <v>      -0.33333333      -0.28571429       0.27272727 </v>
   <v>      -0.16666667      -0.28571429       0.27272727 </v>
   <v>       0.00000000      -0.14285714       0.27272727 </v>
   <v>       0.16666667      -0.14285714       0.27272727 </v>
   <v>       0.33333333      -0.14285714       0.27272727 </v>
   <v>       0.50000000      -0.14285714       0.27272727 </v>
   <v>      -0.33333333      -0.14285714       0.27272727 </v>
   <v>      -0.16666667      -0.14285714       0.27272727 </v>
   <v>       0.00000000       0.00000000       0.36363636 </v>
   <v>       0.16666667       0.00000000       0.36363636 </v>
   <v>       0.33333333       0.00000000       0.36363636 </v>
   <v>       0.50000000       0.00000000       0.36363636 </v>
   <v>      -0.33333333       0.00000000       0.36363636 </v>
   <v>      -0.16666667       0.00000000       0.36363636 </v>
   <v>       0.00000000       0.14285714       0.36363636 </v>
   <v>       0.16666667       0.14285714       0.36363636 </v>
   <v>       0.33333333       0.14285714       0.36363636 </v>
   <v>       0.50000000       0.14285714       0.36363636 </v>
   <v>      -0.33333333       0.14285714       0.36363636 </v>
   <v>      -0.16666667       0.14285714       0.36363636 </v>
   <v>       0.00000000       0.28571429       0.36363636 </v>
   <v>       0.16666667       0.28571429       0.36363636 </v>
   <v>       0.33333333       0.28571429       0.36363636 </v>
   <v>       0.50000000       0.28571429       0.36363636 </v>
   <v>      -0.33333333       0.28571429       0.36363636 </v>
   <v>      -0.16666667       0.28571429       0.36363636 </v>
   <v>       0.00000000       0.42857143       0.36363636 </v>
   <v>       0.16666667       0.42857143       0.36363636 </v>
   <v>       0.33333333       0.42857143       0.36363636 </v>
   <v>       0.50000000       0.42857143       0.36363636 </v>
   <v>      -0.33333333       0.42857143       0.36363636 </v>
   <v>      -0.16666667       0.42857143       0.36363636 </v>
   <v>       0.00000000      -0.42857143       0.36363636 </v>
   <v>       0.16666667      -0.42857143       0.36363636 </v>
   <v>       0.33333333      -0.42857143       0.36363636 </v>
   <v>       0.50000000      -0.42857143       0.36363636 </v>
   <v>      -0.33333333      -0.42857143       0.36363636 </v>
   <v>      -0.16666667      -0.42857143       0.36363636 </v>
   <v>       0.00000000      -0.28571429       0.36363636 </v>
   <v>       0.16666667      -0.28571429       0.36363636 </v>
   <v>       0.33333333      -0.28571429       0.36363636 </v>
   <v>       0.50000000      -0.28571429       0.36363636 </v>
   <v>      -0.33333333      -0.28571429       0.36363636 </v>
   <v>      -0.16666667      -0.28571429       0.36363636 </v>
   <v>       0.00000000      -0.14285714       0.36363636 </v>
   <v>       0.16666667      -0.14285714       0.36363636 </v>
   <v>       0.33333333      -0.14285714       0.36363636 </v>
   <v>       0.50000000      -0.14285714       0.36363636 </v>
   <v>      -0.33333333      -0.14285714       0.36363636 </v>
   <v>      -0.16666667      -0.14285714       0.36363636 </v>
   <v>       0.00000000       0.00000000       0.45454545 </v>
   <v>       0.16666667       0.00000000       0.45454545 </v>
   <v>       0.33333333       0.00000000       0.45454545 </v>
   <v>       0.50000000       0.00000000       0.45454545 </v>
   <v>      -0.33333333       0.00000000       0.45454545 </v>
   <v>      -0.16666667       0.00000000       0.45454545 </v>
   <v>       0.00000000       0.14285714       0.45454545 </v>
   <v>       0.16666667       0.14285714       0.45454545 </v>
   <v>       0.33333333       0.14285714       0.45454545 </v>
   <v>       0.50000000       0.14285714       0.45454545 </v>
   <v>      -0.33333333       0.14285714       0.45454545 </v>
   <v>      -0.16666667       0.14285714       0.45454545 </v>
   <v>       0.00000000       0.28571429       0.45454545 </v>
   <v>       0.16666667       0.28571429       0.45454545 </v>
   <v>       0.33333333       0.28571429       0.45454545 </v>
   <v>       0.50000000       0.28571429       0.45454545 </v>
   <v>      -0.33333333       0.28571429       0.45454545 </v>
   <v>      -0.16666667       0.28571429       0.45454545 </v>
   <v>       0.00000000       0.42857143       0.45454545 </v>
   <v>       0.16666667       0.42857143       0.45454545 </v>
   <v>       0.33333333       0.42857143       0.45454545 </v>
   <v>       0.50000000       0.42857143       0.45454545 </v>
   <v>      -0.33333333       0.42857143       0.45454545 </v>
   <v>      -0.16666667       0.42857143       0.45454545 </v>
   <v>       0.00000000      -0.42857143       0.45454545 </v>
   <v>       0.16666667      -0.42857143       0.45454545 </v>
   <v>       0.33333333      -0.42857143       0.45454545 </v>
   <v>       0.50000000      -0.42857143       0.45454545 </v>
   <v>      -0.33333333      -0.42857143       0.45454545 </v>
   <v>      -0.16666667      -0.42857143       0.45454545 </v>
   <v>       0.00000000      -0.28571429       0.45454545 </v>
   <v>       0.16666667      -0.28571429       0.45454545 </v>
   <v>       0.33333333      -0.28571429       0.45454545 </v>
   <v>       0.50000000      -0.28571429       0.45454545 </v>
   <v>      -0.33333333      -0.28571429       0.45454545 </v>
   <v>      -0.16666667      -0.28571429       0.45454545 </v>
   <v>       0.00000000      -0.14285714       0.45454545 </v>
   <v>       0.16666667      -0.14285714       0.45454545 </v>
   <v>       0.33333333      -0.14285714       0.45454545 </v>
   <v>       0.50000000      -0.14285714       0.45454545 </v>
   <v>      -0.33333333      -0.14285714       0.45454545 </v>
   <v>      -0.16666667      -0.14285714       0.45454545 </v>
  </varray>
  <varray name="weights" >
   <v>       0.00216450 </v>
   <v>       0.00432900 </v>
   <v>       0.00432900 </v>
   <v>       0.00216450 </v>
   <v>       0.00432900 </v>
   <v>       0.00432900 </v>
   <v>       0.00432900 </v>
   <v>       0.00432900 </v>
   <v>       0.00432900 </v>
   <v>       0.00432900 </v>
   <v>       0.00432900 </v>
   <v>       0.00432900 </v>
   <v>       0.00432900 </v>
   <v>       0.00432900 </v>
   <v>       0.00432900 </v>
   <v>       0.00432900 </v>
   <v>       0.00432900 </v>
   <v>       0.00432900 </v>
   <v>       0.00432900 </v>
   <v>       0.00432900 </v>
   <v>       0.00432900 </v>
   <v>       0.00432900 </v>
   <v>       0.00432900 </v>
   <v>       0.00432900 </v>
   <v>       0.00432900 </v>
   <v>       0.00432900 </v>
   <v>       0.00432900 </v>
   <v>       0.00432900 </v>
   <v>       0.00432900 </v>
   <v>       0.00432900 </v>
   <v>       0.00432900 </v>
   <v>       0.00432900 </v>
   <v>       0.00432900 </v>
   <v>       0.00432900 </v>
   <v>       0.00432900 </v>
   <v>       0.00432900 </v>
   <v>       0.00432900 </v>
   <v>       0.00432900 </v>
   <v>       0.00432900 </v>
   <v>       0.00432900 </v>
   <v>       0.00432900 </v>
   <v>       0.00432900 </v>
   <v>       0.00432900 </v>
   <v>       0.00432900 </v>
   <v>       0.00432900 </v>
   <v>       0.00432900 </v>
   <v>       0.00432900 </v>
   <v>       0.00432900 </v>
   <v>       0.00432900 </v>
   <v>       0.00432900 </v>
   <v>       0.00432900 </v>
   <v>       0.00432900 </v>
   <v>       0.00432900 </v>
   <v>       0.00432900 </v>
   <v>       0.00432900 </v>
   <v>       0.00432900 </v>
   <v>       0.00432900 </v>
   <v>       0.00432900 </v>
   <v>       0.00432900 </v>
   <v>       0.00432900 </v>
   <v>       0.00432900 </v>
   <v>       0.00432900 </v>
   <v>       0.00432900 </v>
   <v>       0.00432900 </v>
   <v>       0.00432900 </v>
   <v>       0.00432900 </v>
   <v>       0.00432900 </v>
   <v>       0.00432900 </v>
   <v>       0.00432900 </v>
   <v>       0.00432900 </v>
   <v>       0.00432900 </v>
   <v>       0.00432900 </v>
   <v>       0.00432900 </v>
   <v>       0.00432900 </v>
   <v>       0.00432900 </v>
   <v>       0.00432900 </v>
   <v>       0.00432900 </v>
   <v>       0.00432900 </v>
   <v>       0.00432900 </v>
   <v>       0.00432900 </v>
   <v>       0.00432900 </v>
   <v>       0.00432900 </v>
   <v>       0.00432900 </v>
   <v>       0.00432900 </v>
   <v>       0.00432900 </v>
   <v>       0.00432900 </v>
   <v>       0.00432900 </v>
   <v>       0.00432900 </v>
   <v>       0.00432900 </v>
   <v>       0.00432900 </v>
   <v>       0.00432900 </v>
   <v>       0.00432900 </v>
   <v>       0.00432900 </v>
   <v>       0.00432900 </v>
   <v>       0.00432900 </v>
   <v>       0.00432900 </v>
   <v>       0.00432900 </v>
   <v>       0.00432900 </v>
   <v>       0.00432900 </v>
   <v>       0.00432900 </v>
   <v>       0.00432900 </v>
   <v>       0.00432900 </v>
   <v>       0.00432900 </v>
   <v>       0.00432900 </v>
   <v>       0.00432900 </v>
   <v>       0.00432900 </v>
   <v>       0.00432900 </v>
   <v>       0.00432900 </v>
   <v>       0.00432900 </v>
   <v>       0.00432900 </v>
   <v>       0.00432900 </v>
   <v>       0.00432900 </v>
   <v>       0.00432900 </v>
   <v>       0.00432900 </v>
   <v>       0.00432900 </v>
   <v>       0.00432900 </v>
   <v>       0.00432900 </v>
   <v>       0.00432900 </v>
   <v>       0.00432900 </v>
   <v>       0.00432900 </v>
   <v>       0.00432900 </v>
   <v>       0.00432900 </v>
   <v>       0.00432900 </v>
   <v>       0.00432900 </v>
   <v>       0.00432900 </v>
   <v>       0.00432900 </v>
   <v>       0.00432900 </v>
   <v>       0.00432900 </v>
   <v>       0.00432900 </v>
   <v>       0.00432900 </v>
   <v>       0.00432900 </v>
   <v>       0.00432900 </v>
   <v>       0.00432900 </v>
   <v>       0.00432900 </v>
   <v>       0.00432900 </v>
   <v>       0.00432900 </v>
   <v>       0.00432900 </v>
   <v>       0.00432900 </v>
   <v>       0.00432900 </v>
   <v>       0.00432900 </v>
   <v>       0.00432900 </v>
   <v>       0.00432900 </v>
   <v>       0.00432900 </v>
   <v>       0.00432900 </v>
   <v>       0.00432900 </v>
   <v>       0.00432900 </v>
   <v>       0.00432900 </v>
   <v>       0.00432900 </v>
   <v>       0.00432900 </v>
   <v>       0.00432900 </v>
   <v>       0.00432900 </v>
   <v>       0.00432900 </v>
   <v>       0.00432900 </v>
   <v>       0.00432900 </v>
   <v>       0.00432900 </v>
   <v>       0.00432900 </v>
   <v>       0.00432900 </v>
   <v>       0.00432900 </v>
   <v>       0.00432900 </v>
   <v>       0.00432900 </v>
   <v>       0.00432900 </v>
   <v>       0.00432900 </v>
   <v>       0.00432900 </v>
   <v>       0.00432900 </v>
   <v>       0.00432900 </v>
   <v>       0.00432900 </v>
   <v>       0.00432900 </v>
   <v>       0.00432900 </v>
   <v>       0.00432900 </v>
   <v>       0.00432900 </v>
   <v>       0.00432900 </v>
   <v>       0.00432900 </v>
   <v>       0.00432900 </v>
   <v>       0.00432900 </v>
   <v>       0.00432900 </v>
   <v>       0.00432900 </v>
   <v>       0.00432900 </v>
   <v>       0.00432900 </v>
   <v>       0.00432900 </v>
   <v>       0.00432900 </v>
   <v>       0.00432900 </v>
   <v>       0.00432900 </v>
   <v>       0.00432900 </v>
   <v>       0.00432900 </v>
   <v>       0.00432900 </v>
   <v>       0.00432900 </v>
   <v>       0.00432900 </v>
   <v>       0.00432900 </v>
   <v>       0.00432900 </v>
   <v>       0.00432900 </v>
   <v>       0.00432900 </v>
   <v>       0.00432900 </v>
   <v>       0.00432900 </v>
   <v>       0.00432900 </v>
   <v>       0.00432900 </v>
   <v>       0.00432900 </v>
   <v>       0.00432900 </v>
   <v>       0.00432900 </v>
   <v>       0.00432900 </v>
   <v>       0.00432900 </v>
   <v>       0.00432900 </v>
   <v>       0.00432900 </v>
   <v>       0.00432900 </v>
   <v>       0.00432900 </v>
   <v>       0.00432900 </v>
   <v>       0.00432900 </v>
   <v>       0.00432900 </v>
   <v>       0.00432900 </v>
   <v>       0.00432900 </v>
   <v>       0.00432900 </v>
   <v>       0.00432900 </v>
   <v>       0.00432900 </v>
   <v>       0.00432900 </v>
   <v>       0.00432900 </v>
   <v>       0.00432900 </v>
   <v>       0.00432900 </v>
   <v>       0.00432900 </v>
   <v>       0.00432900 </v>
   <v>       0.00432900 </v>
   <v>       0.00432900 </v>
   <v>       0.00432900 </v>
   <v>       0.00432900 </v>
   <v>       0.00432900 </v>
   <v>       0.00432900 </v>
   <v>       0.00432900 </v>
   <v>       0.00432900 </v>
   <v>       0.00432900 </v>
   <v>       0.00432900 </v>
   <v>       0.00432900 </v>
   <v>       0.00432900 </v>
   <v>       0.00432900 </v>
   <v>       0.00432900 </v>
  </varray>
 </kpoints>
 <parameters>
  <separator name="general" >
   <i type="string" name="SYSTEM">unknown system</i>
   <i type="logical" name="LCOMPAT"> F  </i>
  </separator>
  <separator name="electronic" >
   <i type="string" name="PREC">accura</i>
   <i name="ENMAX">    500.00000000</i>
   <i name="ENAUG">    322.06900000</i>
   <i name="EDIFF">      0.00000001</i>
   <i type="int" name="IALGO">    38</i>
   <i type="int" name="IWAVPR">    10</i>
   <i type="int" name="NBANDS">    24</i>
   <i type="int" name="NBANDSLOW">    -1</i>
   <i type="int" name="NBANDSHIGH">    -1</i>
   <i name="NELECT">     32.00000000</i>
   <i type="int" name="TURBO">     0</i>
   <i type="int" name="IRESTART">     0</i>
   <i type="int" name="NREBOOT">     0</i>
   <i type="int" name="NMIN">     0</i>
   <i name="EREF">      0.00000000</i>
   <separator name="electronic smearing" >
    <i type="int" name="ISMEAR">     0</i>
    <i name="SIGMA">      0.01000000</i>
    <i name="KSPACING">      0.50000000</i>
    <i type="logical" name="KGAMMA"> T  </i>
    <i type="logical" name="KBLOWUP"> F  </i>
   </separator>
   <separator name="electronic projectors" >
    <i type="logical" name="LREAL"> F  </i>
    <v name="ROPT">      0.00000000</v>
    <i type="int" name="LMAXPAW">  -100</i>
    <i type="int" name="LMAXMIX">     2</i>
    <i type="logical" name="NLSPLINE"> F  </i>
   </separator>
   <separator name="electronic startup" >
    <i type="int" name="ISTART">     0</i>
    <i type="int" name="ICHARG">     2</i>
    <i type="int" name="INIWAV">     1</i>
   </separator>
   <separator name="electronic spin" >
    <i type="int" name="ISPIN">     1</i>
    <i type="logical" name="LNONCOLLINEAR"> F  </i>
    <v name="MAGMOM">      1.00000000      1.00000000      1.00000000      1.00000000      1.00000000      1.00000000      1.00000000      1.00000000</v>
    <i name="NUPDOWN">     -1.00000000</i>
    <i type="logical" name="LSORBIT"> F  </i>
    <v name="SAXIS">      0.00000000      0.00000000      1.00000000</v>
    <i type="logical" name="LSPIRAL"> F  </i>
    <v name="QSPIRAL">      0.00000000      0.00000000      0.00000000</v>
    <i type="logical" name="LZEROZ"> F  </i>
   </separator>
   <separator name="electronic exchange-correlation" >
    <i type="logical" name="LASPH"> F  </i>
   </separator>
   <separator name="electronic convergence" >
    <i type="int" name="NELM">    60</i>
    <i type="int" name="NELMDL">    -5</i>
    <i type="int" name="NELMIN">     2</i>
    <i name="ENINI">    500.00000000</i>
    <separator name="electronic convergence detail" >
     <i type="logical" name="LDIAG"> T  </i>
     <i type="logical" name="LSUBROT"> F  </i>
     <i name="WEIMIN">      0.00000000</i>
     <i name="EBREAK">      0.00000000</i>
     <i name="DEPER">      0.30000000</i>
     <i type="int" name="NRMM">     4</i>
     <i name="TIME">      0.40000000</i>
    </separator>
   </separator>
   <separator name="electronic mixer" >
    <i name="AMIX">      0.40000000</i>
    <i name="BMIX">      1.00000000</i>
    <i name="AMIN">      0.10000000</i>
    <i name="AMIX_MAG">      1.60000000</i>
    <i name="BMIX_MAG">      1.00000000</i>
    <separator name="electronic mixer details" >
     <i type="int" name="IMIX">     4</i>
     <i type="logical" name="MIXFIRST"> F  </i>
     <i type="int" name="MAXMIX">   -45</i>
     <i name="WC">    100.00000000</i>
     <i type="int" name="INIMIX">     1</i>
     <i type="int" name="MIXPRE">     1</i>
     <i type="int" name="MREMOVE">     5</i>
    </separator>
   </separator>
   <separator name="electronic dipolcorrection" >
    <i type="logical" name="LDIPOL"> F  </i>
    <i type="logical" name="LMONO"> F  </i>
    <i type="int" name="IDIPOL">     0</i>
    <i name="EPSILON">      1.00000000</i>
    <v name="DIPOL">   -100.00000000   -100.00000000   -100.00000000</v>
    <i name="EFIELD">      0.00000000</i>
    <i type="logical" name="LVACPOTAV"> F  </i>
   </separator>
  </separator>
  <separator name="grids" >
   <i type="int" name="NGX">    50</i>
   <i type="int" name="NGY">    50</i>
   <i type="int" name="NGZ">    28</i>
   <i type="int" name="NGXF">   100</i>
   <i type="int" name="NGYF">   100</i>
   <i type="int" name="NGZF">    56</i>
   <i type="logical" name="ADDGRID"> F  </i>
  </separator>
  <separator name="ionic" >
   <i type="int" name="NSW">     0</i>
   <i type="int" name="IBRION">    -1</i>
   <i type="int" name="MDALGO">     0</i>
   <i type="int" name="ISIF">     2</i>
   <i name="PSTRESS">      0.00000000</i>
   <i name="EDIFFG">      0.00000010</i>
   <i type="int" name="NFREE">     0</i>
   <i name="POTIM">      0.50000000</i>
   <i name="SMASS">     -3.00000000</i>
   <i name="SCALEE">      1.00000000</i>
  </separator>
  <separator name="ionic md" >
   <i name="TEBEG">      0.00010000</i>
   <i name="TEEND">      0.00010000</i>
   <i type="int" name="NBLOCK">     1</i>
   <i type="int" name="KBLOCK">     1</i>
   <i type="int" name="NPACO">   256</i>
   <i name="APACO">     10.00000000</i>
  </separator>
  <separator name="symmetry" >
   <i type="int" name="ISYM">     2</i>
   <i name="SYMPREC">      0.00001000</i>
  </separator>
  <separator name="dos" >
   <i type="int" name="LORBIT">     0</i>
   <v name="RWIGS">     -1.00000000</v>
   <i type="int" name="NEDOS">   301</i>
   <i name="EMIN">     10.00000000</i>
   <i name="EMAX">    -10.00000000</i>
   <i name="EFERMI">      0.00000000</i>
  </separator>
  <separator name="writing" >
   <i type="int" name="NWRITE">     2</i>
   <i type="logical" name="LWAVE"> F  </i>
   <i type="logical" name="LDOWNSAMPLE"> F  </i>
   <i type="logical" name="LCHARG"> F  </i>
   <i type="logical" name="LPARD"> F  </i>
   <i type="logical" name="LVTOT"> F  </i>
   <i type="logical" name="LVHAR"> F  </i>
   <i type="logical" name="LELF"> F  </i>
   <i type="logical" name="LOPTICS"> F  </i>
   <v name="STM">      0.00000000      0.00000000      0.00000000      0.00000000      0.00000000      0.00000000      0.00000000</v>
  </separator>
  <separator name="performance" >
   <i type="int" name="NPAR">     8</i>
   <i type="int" name="NSIM">     4</i>
   <i type="int" name="NBLK">    -1</i>
   <i type="logical" name="LPLANE"> T  </i>
   <i type="logical" name="LSCALAPACK"> T  </i>
   <i type="logical" name="LSCAAWARE"> F  </i>
   <i type="logical" name="LSCALU"> F  </i>
   <i type="logical" name="LASYNC"> F  </i>
   <i type="logical" name="LORBITALREAL"> F  </i>
  </separator>
  <separator name="miscellaneous" >
   <i type="int" name="IDIOT">     3</i>
   <i type="int" name="PHON_NSTRUCT">    -1</i>
   <i type="logical" name="LMUSIC"> F  </i>
   <v name="POMASS">     28.08500000</v>
   <v name="DARWINR">      0.00000000</v>
   <v name="DARWINV">      1.00000000</v>
   <i type="logical" name="LCORR"> T  </i>
  </separator>
  <i type="logical" name="GGA_COMPAT"> T  </i>
  <i type="logical" name="LBERRY"> F  </i>
  <i type="int" name="ICORELEVEL">     0</i>
  <i type="logical" name="LDAU"> F  </i>
  <i type="int" name="I_CONSTRAINED_M">     0</i>
  <separator name="electronic exchange-correlation" >
   <i type="string" name="GGA    ">PE</i>
   <i type="string" name="XC_C">1</i>
   <i type="int" name="VOSKOWN">     0</i>
   <i type="logical" name="LHFCALC"> F  </i>
   <i type="string" name="PRECFOCK"></i>
   <i type="logical" name="LSYMGRAD"> F  </i>
   <i type="logical" name="LHFONE"> F  </i>
   <i type="logical" name="LRHFCALC"> F  </i>
   <i type="logical" name="LTHOMAS"> F  </i>
   <i type="logical" name="LMODELHF"> F  </i>
   <i type="logical" name="LFOCKACE"> F  </i>
   <i name="ENCUT4O">     -1.00000000</i>
   <i type="int" name="EXXOEP">     0</i>
   <i type="int" name="FOURORBIT">     0</i>
   <i name="AEXX">      0.00000000</i>
   <i name="HFALPHA">      0.00000000</i>
   <i name="MCALPHA">      0.00000000</i>
   <i name="ALDAX">      1.00000000</i>
   <i name="AGGAX">      1.00000000</i>
   <i name="AMGGAX">      1.00000000</i>
   <i name="ALDAC">      1.00000000</i>
   <i name="AGGAC">      1.00000000</i>
   <i name="AMGGAC">      1.00000000</i>
   <i type="int" name="NKREDX">     1</i>
   <i type="int" name="NKREDY">     1</i>
   <i type="int" name="NKREDZ">     1</i>
   <i type="logical" name="SHIFTRED"> F  </i>
   <i type="logical" name="ODDONLY"> F  </i>
   <i type="logical" name="EVENONLY"> F  </i>
   <i type="int" name="LMAXFOCK">     0</i>
   <i type="int" name="NMAXFOCKAE">     0</i>
   <i type="logical" name="LFOCKAEDFT"> F  </i>
   <i name="HFSCREEN">      0.00000000</i>
   <i name="HFSCREENC">      0.00000000</i>
   <i type="int" name="NBANDSGWLOW">     0</i>
  </separator>
  <separator name="vdW DFT" >
   <i type="logical" name="LUSE_VDW"> F  </i>
   <i type="int" name="IVDW_NL">    -1</i>
   <i type="logical" name="LSPIN_VDW"> F  </i>
   <i name="ZAB_VDW">     -0.84910000</i>
   <i name="GAMMA_VDW">      1.39626340</i>
   <i name="ALPHA_VDW">      0.00000000</i>
   <i name="PARAM1">      0.12340000</i>
   <i name="PARAM2">      1.00000000</i>
   <i name="BPARAM">      6.30000000</i>
   <i name="CPARAM">      0.00930000</i>
  </separator>
  <separator name="model GW" >
   <i type="int" name="MODEL_GW">     0</i>
   <i name="MODEL_EPS0">     12.09885805</i>
   <i name="MODEL_ALPHA">      1.00000000</i>
  </separator>
  <separator name="linear response parameters" >
   <i type="logical" name="LEPSILON"> F  </i>
   <i type="logical" name="LRPA"> F  </i>
   <i type="logical" name="LNABLA"> F  </i>
   <i type="logical" name="LVEL"> F  </i>
   <i name="CSHIFT">      0.10000000</i>
   <i name="OMEGAMAX">     -1.00000000</i>
   <i name="DEG_THRESHOLD">      0.00200000</i>
   <i name="RTIME">     -0.10000000</i>
   <i name="WPLASMAI">      0.00000000</i>
   <v name="DFIELD">      0.00000000      0.00000000      0.00000000</v>
   <v name="WPLASMA">      0.00000000      0.00000000      0.00000000      0.00000000      0.00000000      0.00000000      0.00000000      0.00000000      0.00000000</v>
  </separator>
  <separator name="orbital magnetization" >
   <i type="logical" name="NUCIND"> F  </i>
   <v name="MAGPOS">      0.00000000      0.00000000      0.00000000</v>
   <i type="logical" name="LNICSALL"> T  </i>
   <i type="logical" name="ORBITALMAG"> F  </i>
   <i type="logical" name="LMAGBLOCH"> F  </i>
   <i type="logical" name="LCHIMAG"> F  </i>
   <i type="logical" name="LGAUGE"> T  </i>
   <i type="int" name="MAGATOM">     0</i>
   <v name="MAGDIPOL">      0.00000000      0.00000000      0.00000000</v>
   <v name="AVECCONST">      0.00000000      0.00000000      0.00000000</v>
  </separator>
  <separator name="response functions" >
   <i type="logical" name="LALL_IN_ONE"> F  </i>
   <i type="int" name="IALL_IN_ONE">    -1</i>
   <i type="int" name="NBANDS_WAVE">    -1</i>
   <i type="logical" name="LFINITE_TEMPERATURE"> F  </i>
   <i type="logical" name="LADDER"> F  </i>
   <i type="logical" name="LRPAFORCE"> F  </i>
   <i type="logical" name="LFXC"> F  </i>
   <i type="logical" name="LHARTREE"> T  </i>
   <i type="int" name="IBSE">     0</i>
   <v type="int" name="KPOINT">    -1     0     0     0</v>
   <i type="logical" name="LTCTC"> F  </i>
   <i type="logical" name="LTCTE"> F  </i>
   <i type="logical" name="LTETE"> F  </i>
   <i type="logical" name="LTRIPLET"> F  </i>
   <i type="logical" name="LFXCEPS"> F  </i>
   <i type="logical" name="LFXHEG"> F  </i>
   <i type="int" name="NATURALO">     2</i>
   <i type="logical" name="LHOLEGF"> F  </i>
   <i type="logical" name="L2ORDER"> F  </i>
   <i type="logical" name="LDMP1"> F  </i>
   <i type="logical" name="LMP2LT"> F  </i>
   <i type="logical" name="LSMP2LT"> F  </i>
   <i type="logical" name="LGWLF"> F  </i>
   <i name="ENCUTGW">     -1.60000002</i>
   <i name="ENCUTGWSOFT">     -1.60000002</i>
   <i name="ENCUTLF">     -1.00000000</i>
   <i type="logical" name="ESF_SPLINES"> F  </i>
   <i name="ESF_CONV">      0.01000000</i>
   <i type="int" name="ESF_NINTER">    15</i>
   <i type="int" name="LMAXMP2">    -1</i>
   <i name="SCISSOR">      0.00000000</i>
   <i type="int" name="NOMEGA">     0</i>
   <i type="int" name="NOMEGAR">     0</i>
   <i type="int" name="NBANDSGW">    -1</i>
   <i type="int" name="NBANDSO">    -1</i>
   <i type="int" name="NBANDSV">    -1</i>
   <i type="int" name="NELMGW">     1</i>
   <i type="int" name="NELMHF">     1</i>
   <i type="int" name="DIM">     3</i>
   <i type="int" name="IESPILON">     4</i>
   <i type="int" name="ANTIRES">     0</i>
   <i name="OMEGAMAX">    -30.00000000</i>
   <i name="OMEGAMIN">    -30.00000000</i>
   <i name="OMEGATL">   -200.00000000</i>
   <i type="int" name="OMEGAGRID">     0</i>
   <i name="CSHIFT">     -0.10000000</i>
   <i type="logical" name="LSELFENERGY"> F  </i>
   <i type="logical" name="LSPECTRAL"> F  </i>
   <i type="logical" name="LSPECTRALGW"> F  </i>
   <i type="logical" name="LSINGLES"> F  </i>
   <i type="logical" name="LFERMIGW"> F  </i>
   <i type="logical" name="ODDONLYGW"> F  </i>
   <i type="logical" name="EVENONLYGW"> F  </i>
   <i type="int" name="NKREDLFX">     1</i>
   <i type="int" name="NKREDLFY">     1</i>
   <i type="int" name="NKREDLFZ">     1</i>
   <i type="int" name="MAXMEM">  2800</i>
   <i type="int" name="TELESCOPE">     0</i>
   <i type="int" name="NTAUPAR">    -1</i>
   <i type="int" name="NOMEGAPAR">    -1</i>
   <i name="DAMP_NEWTON">      0.80000001</i>
   <i name="LAMBDA">      1.00000000</i>
  </separator>
  <separator name="External order field" >
   <i name="OFIELD_KAPPA">      0.00000000</i>
   <v name="OFIELD_K">      0.00000000      0.00000000      0.00000000</v>
   <i name="OFIELD_Q6_NEAR">      0.00000000</i>
   <i name="OFIELD_Q6_FAR">      0.00000000</i>
   <i name="OFIELD_A">      0.00000000</i>
  </separator>
  <separator name="optional k-points parameters" >
   <i type="int" name="KPOINTS_OPT_MODE">     1</i>
   <i type="logical" name="LKPOINTS_OPT"> F  </i>
  </separator>
 </parameters>
 <atominfo>
  <atoms>       8 </atoms>
  <types>       1 </types>
  <array name="atoms" >
   <dimension dim="1">ion</dimension>
   <field type="string">element</field>
   <field type="int">atomtype</field>
   <set>
    <rc><c>Si</c><c>   1</c></rc>
    <rc><c>Si</c><c>   1</c></rc>
    <rc><c>Si</c><c>   1</c></rc>
    <rc><c>Si</c><c>   1</c></rc>
    <rc><c>Si</c><c>   1</c></rc>
    <rc><c>Si</c><c>   1</c></rc>
    <rc><c>Si</c><c>   1</c></rc>
    <rc><c>Si</c><c>   1</c></rc>
   </set>
  </array>
  <array name="atomtypes" >
   <dimension dim="1">type</dimension>
   <field type="int">atomspertype</field>
   <field type="string">element</field>
   <field>mass</field>
   <field>valence</field>
   <field type="string">pseudopotential</field>
   <set>
    <rc><c>   8</c><c>Si</c><c>     28.08500000</c><c>      4.00000000</c><c>  PAW_PBE Si 05Jan2001                  </c></rc>
   </set>
  </array>
 </atominfo>
 <structure name="initialpos" >
  <crystal>
   <varray name="basis" >
    <v>      -2.72185119       2.72185119       5.44370237 </v>
    <v>       2.72185119      -5.44370237       2.72185119 </v>
    <v>       2.72185119       2.72185119       0.00000000 </v>
   </varray>
   <i name="volume">    161.31810740 </i>
   <varray name="rec_basis" >
    <v>      -0.04592463       0.04592463       0.13777388 </v>
    <v>       0.09184925      -0.09184925       0.09184925 </v>
    <v>       0.22962313       0.13777388       0.04592463 </v>
   </varray>
  </crystal>
  <varray name="positions" >
   <v>       0.00000000       0.99850011       0.00000000 </v>
   <v>       0.50000000       0.00000000       0.50000000 </v>
   <v>       0.25000000       0.50000000       0.75000000 </v>
   <v>       0.75000000       0.50000000       0.25000000 </v>
   <v>       0.18750000       0.12500000       0.56250000 </v>
   <v>       0.68750000       0.12500000       0.06250000 </v>
   <v>       0.43750000       0.62500000       0.31250000 </v>
   <v>       0.93750000       0.62500000       0.81250000 </v>
  </varray>
 </structure>
 <calculation>
  <scstep>
   <time name="dav">    1.20    1.20</time>
   <time name="total">    1.21    1.21</time>
   <energy>
    <i name="alphaZ">     13.35522965 </i>
    <i name="ewald">   -911.95052571 </i>
    <i name="hartreedc">    -44.46061646 </i>
    <i name="XCdc">    -74.52612292 </i>
    <i name="pawpsdc">    704.99039692 </i>
    <i name="pawaedc">   -564.24414232 </i>
    <i name="eentropy">     -0.00006663 </i>
    <i name="bandstr">    119.31789607 </i>
    <i name="atom">    824.53005375 </i>
    <i name="e_fr_energy">     67.01210236 </i>
    <i name="e_wo_entrp">     67.01216898 </i>
    <i name="e_0_energy">     67.01213567 </i>
   </energy>
  </scstep>
  <scstep>
   <time name="dav">    1.42    1.42</time>
   <time name="total">    1.42    1.42</time>
   <energy>
    <i name="e_fr_energy">    -38.87624520 </i>
    <i name="e_wo_entrp">    -38.87624520 </i>
    <i name="e_0_energy">    -38.87624520 </i>
   </energy>
  </scstep>
  <scstep>
   <time name="dav">    1.43    1.44</time>
   <time name="total">    1.43    1.44</time>
   <energy>
    <i name="e_fr_energy">    -44.00030207 </i>
    <i name="e_wo_entrp">    -44.00030207 </i>
    <i name="e_0_energy">    -44.00030207 </i>
   </energy>
  </scstep>
  <scstep>
   <time name="dav">    1.37    1.37</time>
   <time name="total">    1.37    1.37</time>
   <energy>
    <i name="e_fr_energy">    -44.09109156 </i>
    <i name="e_wo_entrp">    -44.09109156 </i>
    <i name="e_0_energy">    -44.09109156 </i>
   </energy>
  </scstep>
  <scstep>
   <time name="dav">    1.44    1.44</time>
   <time name="total">    1.49    1.49</time>
   <energy>
    <i name="e_fr_energy">    -44.09345106 </i>
    <i name="e_wo_entrp">    -44.09345106 </i>
    <i name="e_0_energy">    -44.09345106 </i>
   </energy>
  </scstep>
  <scstep>
   <time name="dav">    1.33    1.33</time>
   <time name="total">    1.40    1.40</time>
   <energy>
    <i name="e_fr_energy">    -43.60684322 </i>
    <i name="e_wo_entrp">    -43.60684322 </i>
    <i name="e_0_energy">    -43.60684322 </i>
   </energy>
  </scstep>
  <scstep>
   <time name="dav">    1.32    1.32</time>
   <time name="total">    1.38    1.39</time>
   <energy>
    <i name="e_fr_energy">    -43.38494797 </i>
    <i name="e_wo_entrp">    -43.38494797 </i>
    <i name="e_0_energy">    -43.38494797 </i>
   </energy>
  </scstep>
  <scstep>
   <time name="dav">    1.36    1.36</time>
   <time name="total">    1.42    1.42</time>
   <energy>
    <i name="e_fr_energy">    -43.38895591 </i>
    <i name="e_wo_entrp">    -43.38895591 </i>
    <i name="e_0_energy">    -43.38895591 </i>
   </energy>
  </scstep>
  <scstep>
   <time name="dav">    1.42    1.42</time>
   <time name="total">    1.48    1.49</time>
   <energy>
    <i name="e_fr_energy">    -43.38979361 </i>
    <i name="e_wo_entrp">    -43.38979361 </i>
    <i name="e_0_energy">    -43.38979361 </i>
   </energy>
  </scstep>
  <scstep>
   <time name="dav">    1.33    1.33</time>
   <time name="total">    1.39    1.40</time>
   <energy>
    <i name="e_fr_energy">    -43.39002380 </i>
    <i name="e_wo_entrp">    -43.39002380 </i>
    <i name="e_0_energy">    -43.39002380 </i>
   </energy>
  </scstep>
  <scstep>
   <time name="dav">    1.41    1.41</time>
   <time name="total">    1.48    1.48</time>
   <energy>
    <i name="e_fr_energy">    -43.39002254 </i>
    <i name="e_wo_entrp">    -43.39002254 </i>
    <i name="e_0_energy">    -43.39002254 </i>
   </energy>
  </scstep>
  <scstep>
   <time name="dav">    1.37    1.38</time>
   <time name="total">    1.44    1.44</time>
   <energy>
    <i name="e_fr_energy">    -43.39002391 </i>
    <i name="e_wo_entrp">    -43.39002391 </i>
    <i name="e_0_energy">    -43.39002391 </i>
   </energy>
  </scstep>
  <scstep>
   <time name="dav">    1.39    1.39</time>
   <time name="total">    1.45    1.46</time>
   <energy>
    <i name="e_fr_energy">    -43.39002366 </i>
    <i name="e_wo_entrp">    -43.39002366 </i>
    <i name="e_0_energy">    -43.39002366 </i>
   </energy>
  </scstep>
  <scstep>
   <time name="dav">    1.17    1.17</time>
   <time name="total">    1.23    1.24</time>
   <energy>
    <i name="e_fr_energy">    -43.39002371 </i>
    <i name="e_wo_entrp">    -43.39002371 </i>
    <i name="e_0_energy">    -43.39002371 </i>
   </energy>
  </scstep>
  <scstep>
   <time name="dav">    1.12    1.12</time>
   <time name="total">    1.19    1.19</time>
   <energy>
    <i name="e_fr_energy">    -43.39002368 </i>
    <i name="e_wo_entrp">    -43.39002368 </i>
    <i name="e_0_energy">    -43.39002368 </i>
   </energy>
  </scstep>
  <scstep>
   <time name="dav">    1.22    1.22</time>
   <time name="total">    1.24    1.24</time>
   <energy>
    <i name="alphaZ">     13.35522965 </i>
    <i name="ewald">   -911.95052571 </i>
    <i name="hartreedc">    -60.02809524 </i>
    <i name="XCdc">    -71.99035778 </i>
    <i name="pawpsdc">   3421.43891747 </i>
    <i name="pawaedc">  -3281.56214752 </i>
    <i name="eentropy">     -0.00000000 </i>
    <i name="bandstr">     22.81690169 </i>
    <i name="atom">    824.53005375 </i>
    <i name="e_fr_energy">    -43.39002368 </i>
    <i name="e_wo_entrp">    -43.39002368 </i>
    <i name="e_0_energy">    -43.39002368 </i>
   </energy>
  </scstep>
  <structure>
   <crystal>
    <varray name="basis" >
     <v>      -2.72185119       2.72185119       5.44370237 </v>
     <v>       2.72185119      -5.44370237       2.72185119 </v>
     <v>       2.72185119       2.72185119       0.00000000 </v>
    </varray>
    <i name="volume">    161.31810740 </i>
    <varray name="rec_basis" >
     <v>      -0.04592463       0.04592463       0.13777388 </v>
     <v>       0.09184925      -0.09184925       0.09184925 </v>
     <v>       0.22962313       0.13777388       0.04592463 </v>
    </varray>
   </crystal>
   <varray name="positions" >
    <v>       0.00000000       0.99850011       0.00000000 </v>
    <v>       0.50000000       0.00000000       0.50000000 </v>
    <v>       0.25000000       0.50000000       0.75000000 </v>
    <v>       0.75000000       0.50000000       0.25000000 </v>
    <v>       0.18750000       0.12500000       0.56250000 </v>
    <v>       0.68750000       0.12500000       0.06250000 </v>
    <v>       0.43750000       0.62500000       0.31250000 </v>
    <v>       0.93750000       0.62500000       0.81250000 </v>
   </varray>
  </structure>
  <varray name="forces" >
   <v>       0.05768552      -0.10831893       0.06030356 </v>
   <v>       0.00506055      -0.00714738       0.00250224 </v>
   <v>      -0.00267211       0.00202398      -0.00573736 </v>
   <v>      -0.00421768       0.00358459      -0.00109057 </v>
   <v>       0.00925261       0.03602484      -0.02954801 </v>
   <v>      -0.02514260       0.03019154       0.01359752 </v>
   <v>      -0.00047050       0.00055005      -0.00076891 </v>
   <v>      -0.03949579       0.04309130      -0.03925847 </v>
  </varray>
  <varray name="stress" >
   <v>      12.54605048      -0.38667000       0.78338785 </v>
   <v>      -0.38666995      12.53689039      -0.39690047 </v>
   <v>       0.78338780      -0.39690047      12.51925302 </v>
  </varray>
  <energy>
   <i name="e_fr_energy">    -43.39002368 </i>
   <i name="e_wo_entrp">    -43.39002368 </i>
   <i name="e_0_energy">    -43.39002368 </i>
  </energy>
  <time name="totalsc">   22.99   23.09</time>
  <eigenvalues>
   <array>
    <dimension dim="1">band</dimension>
    <dimension dim="2">kpoint</dimension>
    <dimension dim="3">spin</dimension>
    <field>eigene</field>
    <field>occ</field>
    <set>
     <set comment="spin 1">
      <set comment="kpoint 1">
       <r>   -6.1549    1.0000 </r>
       <r>   -3.8371    1.0000 </r>
       <r>   -3.4625    1.0000 </r>
       <r>   -3.4519    1.0000 </r>
       <r>   -1.1885    1.0000 </r>
       <r>   -0.6073    1.0000 </r>
       <r>   -0.5945    1.0000 </r>
       <r>    2.2379    1.0000 </r>
       <r>    2.2407    1.0000 </r>
       <r>    3.5603    1.0000 </r>
       <r>    3.5766    1.0000 </r>
       <r>    4.5626    1.0000 </r>
       <r>    4.5677    1.0000 </r>
       <r>    5.7399    1.0000 </r>
       <r>    5.7570    1.0000 </r>
       <r>    5.7633    1.0000 </r>
       <r>    7.2705    0.0000 </r>
       <r>    7.2780    0.0000 </r>
       <r>    7.2926    0.0000 </r>
       <r>    8.3103    0.0000 </r>
       <r>    8.3139    0.0000 </r>
       <r>    8.3241    0.0000 </r>
       <r>    9.0445    0.0000 </r>
       <r>    9.0991    0.0000 </r>
      </set>
      <set comment="kpoint 2">
       <r>   -6.0719    1.0000 </r>
       <r>   -4.1883    1.0000 </r>
       <r>   -3.7678    1.0000 </r>
       <r>   -2.8965    1.0000 </r>
       <r>   -1.1333    1.0000 </r>
       <r>   -1.0986    1.0000 </r>
       <r>    0.2683    1.0000 </r>
       <r>    1.6348    1.0000 </r>
       <r>    2.9833    1.0000 </r>
       <r>    3.5483    1.0000 </r>
       <r>    3.7278    1.0000 </r>
       <r>    3.9244    1.0000 </r>
       <r>    4.4464    1.0000 </r>
       <r>    5.0843    1.0000 </r>
       <r>    5.4954    1.0000 </r>
       <r>    5.5809    1.0000 </r>
       <r>    7.2198    0.0000 </r>
       <r>    7.4875    0.0000 </r>
       <r>    7.7845    0.0000 </r>
       <r>    8.2348    0.0000 </r>
       <r>    8.5731    0.0000 </r>
       <r>    8.6654    0.0000 </r>
       <r>    9.0672    0.0000 </r>
       <r>    9.3859    0.0000 </r>
      </set>
      <set comment="kpoint 3">
       <r>   -5.8246    1.0000 </r>
       <r>   -4.8643    1.0000 </r>
       <r>   -3.5649    1.0000 </r>
       <r>   -2.9121    1.0000 </r>
       <r>   -1.0042    1.0000 </r>
       <r>   -0.9833    1.0000 </r>
       <r>    1.3355    1.0000 </r>
       <r>    1.3787    1.0000 </r>
       <r>    2.7859    1.0000 </r>
       <r>    3.6601    1.0000 </r>
       <r>    3.7641    1.0000 </r>
       <r>    3.8353    1.0000 </r>
       <r>    4.0249    1.0000 </r>
       <r>    4.1748    1.0000 </r>
       <r>    4.9707    1.0000 </r>
       <r>    5.1418    1.0000 </r>
       <r>    7.3312    0.0000 </r>
       <r>    7.7226    0.0000 </r>
       <r>    7.9400    0.0000 </r>
       <r>    8.0646    0.0000 </r>
       <r>    8.9619    0.0000 </r>
       <r>    9.4211    0.0000 </r>
       <r>    9.8032    0.0000 </r>
       <r>    9.8125    0.0000 </r>
      </set>
      <set comment="kpoint 4">
       <r>   -5.4192    1.0000 </r>
       <r>   -5.4172    1.0000 </r>
       <r>   -3.2541    1.0000 </r>
       <r>   -3.2460    1.0000 </r>
       <r>   -0.8809    1.0000 </r>
       <r>   -0.8596    1.0000 </r>
       <r>    1.7904    1.0000 </r>
       <r>    1.7984    1.0000 </r>
       <r>    2.5402    1.0000 </r>
       <r>    2.5467    1.0000 </r>
       <r>    3.8795    1.0000 </r>
       <r>    3.8874    1.0000 </r>
       <r>    4.4449    1.0000 </r>
       <r>    4.4543    1.0000 </r>
       <r>    4.5008    1.0000 </r>
       <r>    4.5150    1.0000 </r>
       <r>    7.6017    0.0000 </r>
       <r>    7.6089    0.0000 </r>
       <r>    7.8993    0.0000 </r>
       <r>    7.9055    0.0000 </r>
       <r>    9.4322    0.0000 </r>
       <r>    9.4455    0.0000 </r>
       <r>   10.1964    0.0000 </r>
       <r>   10.2095    0.0000 </r>
      </set>
      <set comment="kpoint 5">
       <r>   -6.0884    1.0000 </r>
       <r>   -4.0915    1.0000 </r>
       <r>   -3.6587    1.0000 </r>
       <r>   -3.1657    1.0000 </r>
       <r>   -0.8092    1.0000 </r>
       <r>   -0.7761    1.0000 </r>
       <r>   -0.7298    1.0000 </r>
       <r>    2.1153    1.0000 </r>
       <r>    2.8552    1.0000 </r>
       <r>    3.2639    1.0000 </r>
       <r>    3.9320    1.0000 </r>
       <r>    4.5991    1.0000 </r>
       <r>    4.6041    1.0000 </r>
       <r>    5.0779    1.0000 </r>
       <r>    5.6487    1.0000 </r>
       <r>    5.6550    1.0000 </r>
       <r>    6.8874    0.0000 </r>
       <r>    7.3134    0.0000 </r>
       <r>    7.7320    0.0000 </r>
       <r>    8.3717    0.0000 </r>
       <r>    8.4692    0.0000 </r>
       <r>    8.4730    0.0000 </r>
       <r>    8.7012    0.0000 </r>
       <r>    9.1407    0.0000 </r>
      </set>
      <set comment="kpoint 6">
       <r>   -5.9796    1.0000 </r>
       <r>   -4.2899    1.0000 </r>
       <r>   -4.1040    1.0000 </r>
       <r>   -2.4580    1.0000 </r>
       <r>   -1.4564    1.0000 </r>
       <r>   -0.6249    1.0000 </r>
       <r>   -0.0348    1.0000 </r>
       <r>    1.6426    1.0000 </r>
       <r>    3.2670    1.0000 </r>
       <r>    3.6257    1.0000 </r>
       <r>    3.8871    1.0000 </r>
       <r>    4.0973    1.0000 </r>
       <r>    4.6055    1.0000 </r>
       <r>    4.7009    1.0000 </r>
       <r>    5.2025    1.0000 </r>
       <r>    5.2723    1.0000 </r>
       <r>    6.8787    0.0000 </r>
       <r>    7.8465    0.0000 </r>
       <r>    7.9254    0.0000 </r>
       <r>    7.9943    0.0000 </r>
       <r>    8.9948    0.0000 </r>
       <r>    9.0761    0.0000 </r>
       <r>    9.2081    0.0000 </r>
       <r>    9.3040    0.0000 </r>
      </set>
      <set comment="kpoint 7">
       <r>   -5.7062    1.0000 </r>
       <r>   -4.9152    1.0000 </r>
       <r>   -3.9737    1.0000 </r>
       <r>   -2.6273    1.0000 </r>
       <r>   -1.2950    1.0000 </r>
       <r>   -0.3769    1.0000 </r>
       <r>    0.9810    1.0000 </r>
       <r>    1.5231    1.0000 </r>
       <r>    2.7277    1.0000 </r>
       <r>    3.4068    1.0000 </r>
       <r>    3.8034    1.0000 </r>
       <r>    4.3722    1.0000 </r>
       <r>    4.3923    1.0000 </r>
       <r>    4.4203    1.0000 </r>
       <r>    4.6251    1.0000 </r>
       <r>    4.6290    1.0000 </r>
       <r>    7.0437    0.0000 </r>
       <r>    7.5144    0.0000 </r>
       <r>    8.0744    0.0000 </r>
       <r>    8.1577    0.0000 </r>
       <r>    9.1041    0.0000 </r>
       <r>    9.8537    0.0000 </r>
       <r>    9.9458    0.0000 </r>
       <r>    9.9761    0.0000 </r>
      </set>
      <set comment="kpoint 8">
       <r>   -5.4341    1.0000 </r>
       <r>   -5.2725    1.0000 </r>
       <r>   -3.7226    1.0000 </r>
       <r>   -3.1700    1.0000 </r>
       <r>   -0.9805    1.0000 </r>
       <r>   -0.2420    1.0000 </r>
       <r>    1.8086    1.0000 </r>
       <r>    1.9935    1.0000 </r>
       <r>    2.1687    1.0000 </r>
       <r>    2.5893    1.0000 </r>
       <r>    3.6668    1.0000 </r>
       <r>    4.0630    1.0000 </r>
       <r>    4.1017    1.0000 </r>
       <r>    4.1818    1.0000 </r>
       <r>    4.8010    1.0000 </r>
       <r>    4.9931    1.0000 </r>
       <r>    7.2081    0.0000 </r>
       <r>    7.3821    0.0000 </r>
       <r>    7.9268    0.0000 </r>
       <r>    8.0566    0.0000 </r>
       <r>    8.9590    0.0000 </r>
       <r>    9.3655    0.0000 </r>
       <r>    9.5591    0.0000 </r>
       <r>   10.8319    0.0000 </r>
      </set>
      <set comment="kpoint 9">
       <r>   -5.8112    1.0000 </r>
       <r>   -4.6877    1.0000 </r>
       <r>   -3.6193    1.0000 </r>
       <r>   -3.4215    1.0000 </r>
       <r>   -0.9153    1.0000 </r>
       <r>   -0.5820    1.0000 </r>
       <r>    1.3797    1.0000 </r>
       <r>    1.6695    1.0000 </r>
       <r>    2.9592    1.0000 </r>
       <r>    3.4258    1.0000 </r>
       <r>    3.4584    1.0000 </r>
       <r>    3.6863    1.0000 </r>
       <r>    3.9893    1.0000 </r>
       <r>    4.0115    1.0000 </r>
       <r>    5.2735    1.0000 </r>
       <r>    5.3495    1.0000 </r>
       <r>    7.0813    0.0000 </r>
       <r>    7.7142    0.0000 </r>
       <r>    7.8108    0.0000 </r>
       <r>    8.1102    0.0000 </r>
       <r>    8.6966    0.0000 </r>
       <r>    8.8805    0.0000 </r>
       <r>    8.9986    0.0000 </r>
       <r>    9.8411    0.0000 </r>
      </set>
      <set comment="kpoint 10">
       <r>   -6.0315    1.0000 </r>
       <r>   -3.9709    1.0000 </r>
       <r>   -3.9293    1.0000 </r>
       <r>   -3.2995    1.0000 </r>
       <r>   -0.9896    1.0000 </r>
       <r>   -0.8959    1.0000 </r>
       <r>    0.2583    1.0000 </r>
       <r>    2.1519    1.0000 </r>
       <r>    2.7481    1.0000 </r>
       <r>    3.4040    1.0000 </r>
       <r>    3.8990    1.0000 </r>
       <r>    4.0472    1.0000 </r>
       <r>    4.3645    1.0000 </r>
       <r>    4.7076    1.0000 </r>
       <r>    5.4006    1.0000 </r>
       <r>    5.6610    1.0000 </r>
       <r>    6.9956    0.0000 </r>
       <r>    7.6445    0.0000 </r>
       <r>    7.8024    0.0000 </r>
       <r>    8.3881    0.0000 </r>
       <r>    8.4486    0.0000 </r>
       <r>    8.4846    0.0000 </r>
       <r>    8.6621    0.0000 </r>
       <r>    9.0113    0.0000 </r>
      </set>
      <set comment="kpoint 11">
       <r>   -5.8902    1.0000 </r>
       <r>   -4.6063    1.0000 </r>
       <r>   -3.7810    1.0000 </r>
       <r>   -2.7800    1.0000 </r>
       <r>   -1.1871    1.0000 </r>
       <r>   -1.0096    1.0000 </r>
       <r>    0.0791    1.0000 </r>
       <r>    2.4517    1.0000 </r>
       <r>    3.0493    1.0000 </r>
       <r>    3.6959    1.0000 </r>
       <r>    3.8196    1.0000 </r>
       <r>    4.2914    1.0000 </r>
       <r>    4.7081    1.0000 </r>
       <r>    4.7131    1.0000 </r>
       <r>    5.4010    1.0000 </r>
       <r>    5.4069    1.0000 </r>
       <r>    6.6063    0.0000 </r>
       <r>    7.4367    0.0000 </r>
       <r>    7.4425    0.0000 </r>
       <r>    7.9158    0.0000 </r>
       <r>    8.1797    0.0000 </r>
       <r>    8.8312    0.0000 </r>
       <r>    8.8350    0.0000 </r>
       <r>    9.1088    0.0000 </r>
      </set>
      <set comment="kpoint 12">
       <r>   -5.7566    1.0000 </r>
       <r>   -4.6335    1.0000 </r>
       <r>   -4.2781    1.0000 </r>
       <r>   -2.1842    1.0000 </r>
       <r>   -1.7872    1.0000 </r>
       <r>   -0.3966    1.0000 </r>
       <r>    0.3166    1.0000 </r>
       <r>    2.0720    1.0000 </r>
       <r>    3.0794    1.0000 </r>
       <r>    3.5046    1.0000 </r>
       <r>    3.9424    1.0000 </r>
       <r>    4.3416    1.0000 </r>
       <r>    4.4380    1.0000 </r>
       <r>    4.8292    1.0000 </r>
       <r>    4.8968    1.0000 </r>
       <r>    5.1016    1.0000 </r>
       <r>    6.6591    0.0000 </r>
       <r>    7.7172    0.0000 </r>
       <r>    7.9841    0.0000 </r>
       <r>    7.9935    0.0000 </r>
       <r>    8.1095    0.0000 </r>
       <r>    8.9376    0.0000 </r>
       <r>    9.0216    0.0000 </r>
       <r>    9.3022    0.0000 </r>
      </set>
      <set comment="kpoint 13">
       <r>   -5.4586    1.0000 </r>
       <r>   -4.8405    1.0000 </r>
       <r>   -4.5095    1.0000 </r>
       <r>   -2.9312    1.0000 </r>
       <r>   -0.9883    1.0000 </r>
       <r>    0.5616    1.0000 </r>
       <r>    0.5757    1.0000 </r>
       <r>    1.9635    1.0000 </r>
       <r>    2.8089    1.0000 </r>
       <r>    2.9805    1.0000 </r>
       <r>    3.2499    1.0000 </r>
       <r>    4.3256    1.0000 </r>
       <r>    4.3385    1.0000 </r>
       <r>    4.6990    1.0000 </r>
       <r>    4.7257    1.0000 </r>
       <r>    4.7845    1.0000 </r>
       <r>    6.8691    0.0000 </r>
       <r>    7.4212    0.0000 </r>
       <r>    7.5713    0.0000 </r>
       <r>    8.4325    0.0000 </r>
       <r>    8.8441    0.0000 </r>
       <r>    9.1872    0.0000 </r>
       <r>    9.3604    0.0000 </r>
       <r>    9.7088    0.0000 </r>
      </set>
      <set comment="kpoint 14">
       <r>   -5.3201    1.0000 </r>
       <r>   -4.9999    1.0000 </r>
       <r>   -4.2529    1.0000 </r>
       <r>   -3.5791    1.0000 </r>
       <r>   -0.4403    1.0000 </r>
       <r>    0.4446    1.0000 </r>
       <r>    1.7403    1.0000 </r>
       <r>    2.0667    1.0000 </r>
       <r>    2.1611    1.0000 </r>
       <r>    2.3532    1.0000 </r>
       <r>    3.5471    1.0000 </r>
       <r>    3.8065    1.0000 </r>
       <r>    3.8180    1.0000 </r>
       <r>    4.5270    1.0000 </r>
       <r>    4.8701    1.0000 </r>
       <r>    5.0495    1.0000 </r>
       <r>    6.8564    0.0000 </r>
       <r>    7.2625    0.0000 </r>
       <r>    7.7678    0.0000 </r>
       <r>    8.2937    0.0000 </r>
       <r>    8.7654    0.0000 </r>
       <r>    9.1889    0.0000 </r>
       <r>    9.3413    0.0000 </r>
       <r>    9.9041    0.0000 </r>
      </set>
      <set comment="kpoint 15">
       <r>   -5.6662    1.0000 </r>
       <r>   -4.3884    1.0000 </r>
       <r>   -4.0782    1.0000 </r>
       <r>   -3.9152    1.0000 </r>
       <r>   -0.3027    1.0000 </r>
       <r>   -0.2118    1.0000 </r>
       <r>    0.9551    1.0000 </r>
       <r>    2.4086    1.0000 </r>
       <r>    2.9911    1.0000 </r>
       <r>    3.2319    1.0000 </r>
       <r>    3.3920    1.0000 </r>
       <r>    3.4237    1.0000 </r>
       <r>    3.9406    1.0000 </r>
       <r>    4.3534    1.0000 </r>
       <r>    4.6982    1.0000 </r>
       <r>    5.4138    1.0000 </r>
       <r>    6.5664    0.0000 </r>
       <r>    7.7693    0.0000 </r>
       <r>    7.9206    0.0000 </r>
       <r>    8.1090    0.0000 </r>
       <r>    8.2781    0.0000 </r>
       <r>    8.8744    0.0000 </r>
       <r>    9.2341    0.0000 </r>
       <r>    9.9469    0.0000 </r>
      </set>
      <set comment="kpoint 16">
       <r>   -5.8591    1.0000 </r>
       <r>   -4.4216    1.0000 </r>
       <r>   -3.6570    1.0000 </r>
       <r>   -3.6357    1.0000 </r>
       <r>   -0.9678    1.0000 </r>
       <r>   -0.1568    1.0000 </r>
       <r>   -0.0853    1.0000 </r>
       <r>    2.9304    1.0000 </r>
       <r>    3.0090    1.0000 </r>
       <r>    3.1645    1.0000 </r>
       <r>    3.9081    1.0000 </r>
       <r>    4.2464    1.0000 </r>
       <r>    4.2659    1.0000 </r>
       <r>    4.3676    1.0000 </r>
       <r>    4.7593    1.0000 </r>
       <r>    5.6067    1.0000 </r>
       <r>    6.5537    0.0000 </r>
       <r>    7.4138    0.0000 </r>
       <r>    7.8969    0.0000 </r>
       <r>    8.0031    0.0000 </r>
       <r>    8.6223    0.0000 </r>
       <r>    8.6503    0.0000 </r>
       <r>    8.8305    0.0000 </r>
       <r>    9.0284    0.0000 </r>
      </set>
      <set comment="kpoint 17">
       <r>   -5.5659    1.0000 </r>
       <r>   -5.1274    1.0000 </r>
       <r>   -3.8374    1.0000 </r>
       <r>   -2.3038    1.0000 </r>
       <r>   -1.7557    1.0000 </r>
       <r>   -1.1544    1.0000 </r>
       <r>    1.2128    1.0000 </r>
       <r>    2.4841    1.0000 </r>
       <r>    2.8527    1.0000 </r>
       <r>    2.9390    1.0000 </r>
       <r>    4.4271    1.0000 </r>
       <r>    4.5336    1.0000 </r>
       <r>    4.8868    1.0000 </r>
       <r>    4.8917    1.0000 </r>
       <r>    5.1266    1.0000 </r>
       <r>    5.1323    1.0000 </r>
       <r>    6.4681    0.0000 </r>
       <r>    6.6250    0.0000 </r>
       <r>    7.3944    0.0000 </r>
       <r>    7.6392    0.0000 </r>
       <r>    7.9005    0.0000 </r>
       <r>    9.0730    0.0000 </r>
       <r>    9.1559    0.0000 </r>
       <r>    9.1671    0.0000 </r>
      </set>
      <set comment="kpoint 18">
       <r>   -5.4093    1.0000 </r>
       <r>   -5.1420    1.0000 </r>
       <r>   -4.1601    1.0000 </r>
       <r>   -2.6748    1.0000 </r>
       <r>   -1.3297    1.0000 </r>
       <r>   -0.6946    1.0000 </r>
       <r>    1.4635    1.0000 </r>
       <r>    2.2226    1.0000 </r>
       <r>    2.6500    1.0000 </r>
       <r>    2.9978    1.0000 </r>
       <r>    4.0960    1.0000 </r>
       <r>    4.5890    1.0000 </r>
       <r>    4.6232    1.0000 </r>
       <r>    4.6399    1.0000 </r>
       <r>    4.8120    1.0000 </r>
       <r>    5.1011    1.0000 </r>
       <r>    6.5300    0.0000 </r>
       <r>    7.0507    0.0000 </r>
       <r>    7.3254    0.0000 </r>
       <r>    8.1761    0.0000 </r>
       <r>    8.1932    0.0000 </r>
       <r>    8.9619    0.0000 </r>
       <r>    9.1302    0.0000 </r>
       <r>    9.1638    0.0000 </r>
      </set>
      <set comment="kpoint 19">
       <r>   -5.0896    1.0000 </r>
       <r>   -5.0003    1.0000 </r>
       <r>   -4.6433    1.0000 </r>
       <r>   -3.4675    1.0000 </r>
       <r>   -0.3711    1.0000 </r>
       <r>    0.2173    1.0000 </r>
       <r>    1.5820    1.0000 </r>
       <r>    1.8838    1.0000 </r>
       <r>    2.5669    1.0000 </r>
       <r>    3.0940    1.0000 </r>
       <r>    3.1993    1.0000 </r>
       <r>    3.9786    1.0000 </r>
       <r>    4.1009    1.0000 </r>
       <r>    4.3701    1.0000 </r>
       <r>    4.8142    1.0000 </r>
       <r>    5.0488    1.0000 </r>
       <r>    6.7534    0.0000 </r>
       <r>    7.6378    0.0000 </r>
       <r>    7.6575    0.0000 </r>
       <r>    7.8724    0.0000 </r>
       <r>    8.6982    0.0000 </r>
       <r>    9.1917    0.0000 </r>
       <r>    9.3398    0.0000 </r>
       <r>    9.5147    0.0000 </r>
      </set>
      <set comment="kpoint 20">
       <r>   -5.0791    1.0000 </r>
       <r>   -4.7186    1.0000 </r>
       <r>   -4.6080    1.0000 </r>
       <r>   -4.1173    1.0000 </r>
       <r>    0.3780    1.0000 </r>
       <r>    0.9464    1.0000 </r>
       <r>    1.2571    1.0000 </r>
       <r>    1.3398    1.0000 </r>
       <r>    2.8372    1.0000 </r>
       <r>    2.9490    1.0000 </r>
       <r>    3.3772    1.0000 </r>
       <r>    3.5321    1.0000 </r>
       <r>    3.6238    1.0000 </r>
       <r>    3.9835    1.0000 </r>
       <r>    4.8598    1.0000 </r>
       <r>    5.0721    1.0000 </r>
       <r>    6.9965    0.0000 </r>
       <r>    7.1873    0.0000 </r>
       <r>    8.2124    0.0000 </r>
       <r>    8.5295    0.0000 </r>
       <r>    8.5398    0.0000 </r>
       <r>    8.9387    0.0000 </r>
       <r>    9.2335    0.0000 </r>
       <r>    9.5056    0.0000 </r>
      </set>
      <set comment="kpoint 21">
       <r>   -5.3933    1.0000 </r>
       <r>   -4.6140    1.0000 </r>
       <r>   -4.3309    1.0000 </r>
       <r>   -3.9744    1.0000 </r>
       <r>   -0.0666    1.0000 </r>
       <r>    0.3101    1.0000 </r>
       <r>    0.7783    1.0000 </r>
       <r>    2.4234    1.0000 </r>
       <r>    3.1390    1.0000 </r>
       <r>    3.2580    1.0000 </r>
       <r>    3.3988    1.0000 </r>
       <r>    3.5831    1.0000 </r>
       <r>    3.7427    1.0000 </r>
       <r>    3.9705    1.0000 </r>
       <r>    4.6703    1.0000 </r>
       <r>    5.3161    1.0000 </r>
       <r>    6.5325    0.0000 </r>
       <r>    7.5795    0.0000 </r>
       <r>    7.7600    0.0000 </r>
       <r>    8.1785    0.0000 </r>
       <r>    8.7392    0.0000 </r>
       <r>    9.1020    0.0000 </r>
       <r>    9.3885    0.0000 </r>
       <r>    9.4316    0.0000 </r>
      </set>
      <set comment="kpoint 22">
       <r>   -5.5592    1.0000 </r>
       <r>   -4.9516    1.0000 </r>
       <r>   -3.9471    1.0000 </r>
       <r>   -3.1991    1.0000 </r>
       <r>   -0.8864    1.0000 </r>
       <r>   -0.7404    1.0000 </r>
       <r>    0.9978    1.0000 </r>
       <r>    2.7081    1.0000 </r>
       <r>    3.0210    1.0000 </r>
       <r>    3.0265    1.0000 </r>
       <r>    3.9570    1.0000 </r>
       <r>    4.3551    1.0000 </r>
       <r>    4.4593    1.0000 </r>
       <r>    4.5098    1.0000 </r>
       <r>    4.5518    1.0000 </r>
       <r>    5.3832    1.0000 </r>
       <r>    6.3408    0.0000 </r>
       <r>    6.9228    0.0000 </r>
       <r>    7.7588    0.0000 </r>
       <r>    8.0483    0.0000 </r>
       <r>    8.4330    0.0000 </r>
       <r>    8.9480    0.0000 </r>
       <r>    9.0450    0.0000 </r>
       <r>    9.1406    0.0000 </r>
      </set>
      <set comment="kpoint 23">
       <r>   -6.0764    1.0000 </r>
       <r>   -3.7946    1.0000 </r>
       <r>   -3.4690    1.0000 </r>
       <r>   -3.3164    1.0000 </r>
       <r>   -1.1107    1.0000 </r>
       <r>   -0.6291    1.0000 </r>
       <r>   -0.6061    1.0000 </r>
       <r>    2.0763    1.0000 </r>
       <r>    2.2582    1.0000 </r>
       <r>    3.1941    1.0000 </r>
       <r>    3.4669    1.0000 </r>
       <r>    4.0037    1.0000 </r>
       <r>    4.4381    1.0000 </r>
       <r>    5.0840    1.0000 </r>
       <r>    5.4698    1.0000 </r>
       <r>    5.6672    1.0000 </r>
       <r>    7.7543    0.0000 </r>
       <r>    7.7664    0.0000 </r>
       <r>    8.0250    0.0000 </r>
       <r>    8.2998    0.0000 </r>
       <r>    8.5207    0.0000 </r>
       <r>    8.5976    0.0000 </r>
       <r>    9.0007    0.0000 </r>
       <r>    9.4124    0.0000 </r>
      </set>
      <set comment="kpoint 24">
       <r>   -5.9856    1.0000 </r>
       <r>   -4.1699    1.0000 </r>
       <r>   -3.7591    1.0000 </r>
       <r>   -2.6932    1.0000 </r>
       <r>   -1.2057    1.0000 </r>
       <r>   -1.0106    1.0000 </r>
       <r>    0.1957    1.0000 </r>
       <r>    1.6146    1.0000 </r>
       <r>    2.7740    1.0000 </r>
       <r>    3.0757    1.0000 </r>
       <r>    3.5964    1.0000 </r>
       <r>    3.8932    1.0000 </r>
       <r>    4.2662    1.0000 </r>
       <r>    4.4170    1.0000 </r>
       <r>    5.3414    1.0000 </r>
       <r>    5.5814    1.0000 </r>
       <r>    7.7277    0.0000 </r>
       <r>    8.0169    0.0000 </r>
       <r>    8.1949    0.0000 </r>
       <r>    8.3439    0.0000 </r>
       <r>    8.5410    0.0000 </r>
       <r>    8.8023    0.0000 </r>
       <r>    9.0327    0.0000 </r>
       <r>    9.6881    0.0000 </r>
      </set>
      <set comment="kpoint 25">
       <r>   -5.7310    1.0000 </r>
       <r>   -4.8278    1.0000 </r>
       <r>   -3.5885    1.0000 </r>
       <r>   -2.6996    1.0000 </r>
       <r>   -1.1691    1.0000 </r>
       <r>   -0.8387    1.0000 </r>
       <r>    1.2230    1.0000 </r>
       <r>    1.4429    1.0000 </r>
       <r>    2.6602    1.0000 </r>
       <r>    3.1759    1.0000 </r>
       <r>    3.2746    1.0000 </r>
       <r>    3.5030    1.0000 </r>
       <r>    3.9392    1.0000 </r>
       <r>    4.4971    1.0000 </r>
       <r>    4.5170    1.0000 </r>
       <r>    5.2906    1.0000 </r>
       <r>    7.8567    0.0000 </r>
       <r>    8.2113    0.0000 </r>
       <r>    8.3769    0.0000 </r>
       <r>    8.5751    0.0000 </r>
       <r>    8.9481    0.0000 </r>
       <r>    8.9910    0.0000 </r>
       <r>    9.3741    0.0000 </r>
       <r>    9.4577    0.0000 </r>
      </set>
      <set comment="kpoint 26">
       <r>   -5.3685    1.0000 </r>
       <r>   -5.3178    1.0000 </r>
       <r>   -3.3051    1.0000 </r>
       <r>   -3.0901    1.0000 </r>
       <r>   -0.9948    1.0000 </r>
       <r>   -0.7210    1.0000 </r>
       <r>    1.7959    1.0000 </r>
       <r>    1.8361    1.0000 </r>
       <r>    2.3739    1.0000 </r>
       <r>    2.4372    1.0000 </r>
       <r>    3.4546    1.0000 </r>
       <r>    3.5986    1.0000 </r>
       <r>    3.7350    1.0000 </r>
       <r>    3.8366    1.0000 </r>
       <r>    4.7770    1.0000 </r>
       <r>    5.0984    1.0000 </r>
       <r>    8.0593    0.0000 </r>
       <r>    8.1395    0.0000 </r>
       <r>    8.3158    0.0000 </r>
       <r>    8.5086    0.0000 </r>
       <r>    9.0275    0.0000 </r>
       <r>    9.4806    0.0000 </r>
       <r>    9.8744    0.0000 </r>
       <r>    9.9832    0.0000 </r>
      </set>
      <set comment="kpoint 27">
       <r>   -5.7640    1.0000 </r>
       <r>   -4.7567    1.0000 </r>
       <r>   -3.4487    1.0000 </r>
       <r>   -2.9937    1.0000 </r>
       <r>   -1.0346    1.0000 </r>
       <r>   -0.8897    1.0000 </r>
       <r>    1.3278    1.0000 </r>
       <r>    1.4769    1.0000 </r>
       <r>    2.6765    1.0000 </r>
       <r>    3.1184    1.0000 </r>
       <r>    3.3671    1.0000 </r>
       <r>    3.5613    1.0000 </r>
       <r>    3.8699    1.0000 </r>
       <r>    4.1585    1.0000 </r>
       <r>    4.5016    1.0000 </r>
       <r>    5.5239    1.0000 </r>
       <r>    7.9808    0.0000 </r>
       <r>    8.0693    0.0000 </r>
       <r>    8.4765    0.0000 </r>
       <r>    8.6279    0.0000 </r>
       <r>    8.7452    0.0000 </r>
       <r>    8.9964    0.0000 </r>
       <r>    9.0116    0.0000 </r>
       <r>    9.5864    0.0000 </r>
      </set>
      <set comment="kpoint 28">
       <r>   -6.0019    1.0000 </r>
       <r>   -4.0707    1.0000 </r>
       <r>   -3.6898    1.0000 </r>
       <r>   -2.9606    1.0000 </r>
       <r>   -1.1099    1.0000 </r>
       <r>   -1.0527    1.0000 </r>
       <r>    0.2872    1.0000 </r>
       <r>    1.7501    1.0000 </r>
       <r>    2.5947    1.0000 </r>
       <r>    3.3045    1.0000 </r>
       <r>    3.5393    1.0000 </r>
       <r>    3.5754    1.0000 </r>
       <r>    4.3066    1.0000 </r>
       <r>    4.6196    1.0000 </r>
       <r>    5.2218    1.0000 </r>
       <r>    5.6086    1.0000 </r>
       <r>    7.8790    0.0000 </r>
       <r>    7.9691    0.0000 </r>
       <r>    8.0312    0.0000 </r>
       <r>    8.3222    0.0000 </r>
       <r>    8.6174    0.0000 </r>
       <r>    8.7668    0.0000 </r>
       <r>    9.0249    0.0000 </r>
       <r>    9.4708    0.0000 </r>
      </set>
      <set comment="kpoint 29">
       <r>   -5.9678    1.0000 </r>
       <r>   -4.1735    1.0000 </r>
       <r>   -3.6387    1.0000 </r>
       <r>   -3.0039    1.0000 </r>
       <r>   -0.8669    1.0000 </r>
       <r>   -0.8265    1.0000 </r>
       <r>   -0.5303    1.0000 </r>
       <r>    2.1980    1.0000 </r>
       <r>    2.8279    1.0000 </r>
       <r>    2.8496    1.0000 </r>
       <r>    3.9407    1.0000 </r>
       <r>    4.0401    1.0000 </r>
       <r>    4.4951    1.0000 </r>
       <r>    4.5333    1.0000 </r>
       <r>    5.0933    1.0000 </r>
       <r>    5.5238    1.0000 </r>
       <r>    7.4004    0.0000 </r>
       <r>    7.8308    0.0000 </r>
       <r>    8.1940    0.0000 </r>
       <r>    8.3440    0.0000 </r>
       <r>    8.4181    0.0000 </r>
       <r>    8.7946    0.0000 </r>
       <r>    8.9242    0.0000 </r>
       <r>    9.0152    0.0000 </r>
      </set>
      <set comment="kpoint 30">
       <r>   -5.8519    1.0000 </r>
       <r>   -4.2319    1.0000 </r>
       <r>   -4.1940    1.0000 </r>
       <r>   -2.2512    1.0000 </r>
       <r>   -1.6329    1.0000 </r>
       <r>   -0.3332    1.0000 </r>
       <r>   -0.1239    1.0000 </r>
       <r>    1.8040    1.0000 </r>
       <r>    2.7971    1.0000 </r>
       <r>    3.2701    1.0000 </r>
       <r>    3.7326    1.0000 </r>
       <r>    3.8868    1.0000 </r>
       <r>    4.2962    1.0000 </r>
       <r>    4.3914    1.0000 </r>
       <r>    4.8180    1.0000 </r>
       <r>    5.4947    1.0000 </r>
       <r>    7.4349    0.0000 </r>
       <r>    8.0533    0.0000 </r>
       <r>    8.3346    0.0000 </r>
       <r>    8.3855    0.0000 </r>
       <r>    8.7514    0.0000 </r>
       <r>    8.9203    0.0000 </r>
       <r>    9.0070    0.0000 </r>
       <r>    9.0985    0.0000 </r>
      </set>
      <set comment="kpoint 31">
       <r>   -5.5722    1.0000 </r>
       <r>   -4.8364    1.0000 </r>
       <r>   -4.0700    1.0000 </r>
       <r>   -2.6032    1.0000 </r>
       <r>   -1.2800    1.0000 </r>
       <r>   -0.0993    1.0000 </r>
       <r>    0.8681    1.0000 </r>
       <r>    1.6792    1.0000 </r>
       <r>    2.7105    1.0000 </r>
       <r>    2.9662    1.0000 </r>
       <r>    3.0888    1.0000 </r>
       <r>    3.7028    1.0000 </r>
       <r>    4.1419    1.0000 </r>
       <r>    4.5075    1.0000 </r>
       <r>    4.6900    1.0000 </r>
       <r>    4.8854    1.0000 </r>
       <r>    7.6080    0.0000 </r>
       <r>    7.7910    0.0000 </r>
       <r>    8.2850    0.0000 </r>
       <r>    8.7011    0.0000 </r>
       <r>    9.0085    0.0000 </r>
       <r>    9.2137    0.0000 </r>
       <r>    9.4908    0.0000 </r>
       <r>    9.6808    0.0000 </r>
      </set>
      <set comment="kpoint 32">
       <r>   -5.3416    1.0000 </r>
       <r>   -5.1331    1.0000 </r>
       <r>   -3.8208    1.0000 </r>
       <r>   -3.2022    1.0000 </r>
       <r>   -0.8599    1.0000 </r>
       <r>   -0.0476    1.0000 </r>
       <r>    1.9287    1.0000 </r>
       <r>    2.0199    1.0000 </r>
       <r>    2.0373    1.0000 </r>
       <r>    2.1641    1.0000 </r>
       <r>    3.3330    1.0000 </r>
       <r>    3.8153    1.0000 </r>
       <r>    3.9004    1.0000 </r>
       <r>    4.1399    1.0000 </r>
       <r>    4.1922    1.0000 </r>
       <r>    5.2034    1.0000 </r>
       <r>    7.4080    0.0000 </r>
       <r>    7.9429    0.0000 </r>
       <r>    8.3020    0.0000 </r>
       <r>    8.6576    0.0000 </r>
       <r>    9.0836    0.0000 </r>
       <r>    9.3772    0.0000 </r>
       <r>    9.4937    0.0000 </r>
       <r>    9.7395    0.0000 </r>
      </set>
      <set comment="kpoint 33">
       <r>   -5.7079    1.0000 </r>
       <r>   -4.5436    1.0000 </r>
       <r>   -3.6747    1.0000 </r>
       <r>   -3.5113    1.0000 </r>
       <r>   -0.7167    1.0000 </r>
       <r>   -0.5005    1.0000 </r>
       <r>    1.1412    1.0000 </r>
       <r>    1.8915    1.0000 </r>
       <r>    2.7523    1.0000 </r>
       <r>    3.1481    1.0000 </r>
       <r>    3.2725    1.0000 </r>
       <r>    3.6636    1.0000 </r>
       <r>    3.7288    1.0000 </r>
       <r>    3.8815    1.0000 </r>
       <r>    4.7143    1.0000 </r>
       <r>    5.2430    1.0000 </r>
       <r>    7.2779    0.0000 </r>
       <r>    8.2643    0.0000 </r>
       <r>    8.3661    0.0000 </r>
       <r>    8.4624    0.0000 </r>
       <r>    8.6577    0.0000 </r>
       <r>    8.8250    0.0000 </r>
       <r>    9.1705    0.0000 </r>
       <r>    9.4730    0.0000 </r>
      </set>
      <set comment="kpoint 34">
       <r>   -5.9190    1.0000 </r>
       <r>   -4.0003    1.0000 </r>
       <r>   -3.8212    1.0000 </r>
       <r>   -3.3468    1.0000 </r>
       <r>   -0.9739    1.0000 </r>
       <r>   -0.6478    1.0000 </r>
       <r>    0.1040    1.0000 </r>
       <r>    2.3231    1.0000 </r>
       <r>    2.6528    1.0000 </r>
       <r>    3.1666    1.0000 </r>
       <r>    3.5026    1.0000 </r>
       <r>    3.7179    1.0000 </r>
       <r>    4.4243    1.0000 </r>
       <r>    4.4606    1.0000 </r>
       <r>    5.0494    1.0000 </r>
       <r>    5.1601    1.0000 </r>
       <r>    7.3497    0.0000 </r>
       <r>    7.9221    0.0000 </r>
       <r>    8.1129    0.0000 </r>
       <r>    8.2370    0.0000 </r>
       <r>    8.3894    0.0000 </r>
       <r>    9.0743    0.0000 </r>
       <r>    9.1374    0.0000 </r>
       <r>    9.2785    0.0000 </r>
      </set>
      <set comment="kpoint 35">
       <r>   -5.7290    1.0000 </r>
       <r>   -4.7075    1.0000 </r>
       <r>   -3.7352    1.0000 </r>
       <r>   -2.6005    1.0000 </r>
       <r>   -1.3631    1.0000 </r>
       <r>   -1.0356    1.0000 </r>
       <r>    0.4458    1.0000 </r>
       <r>    2.5711    1.0000 </r>
       <r>    2.6868    1.0000 </r>
       <r>    3.3389    1.0000 </r>
       <r>    3.5084    1.0000 </r>
       <r>    4.1368    1.0000 </r>
       <r>    4.3303    1.0000 </r>
       <r>    4.6844    1.0000 </r>
       <r>    4.7250    1.0000 </r>
       <r>    5.3532    1.0000 </r>
       <r>    7.0548    0.0000 </r>
       <r>    7.3178    0.0000 </r>
       <r>    7.9699    0.0000 </r>
       <r>    8.0473    0.0000 </r>
       <r>    8.3331    0.0000 </r>
       <r>    8.7832    0.0000 </r>
       <r>    9.0278    0.0000 </r>
       <r>    9.0824    0.0000 </r>
      </set>
      <set comment="kpoint 36">
       <r>   -5.5891    1.0000 </r>
       <r>   -4.7309    1.0000 </r>
       <r>   -4.1823    1.0000 </r>
       <r>   -2.2654    1.0000 </r>
       <r>   -1.6818    1.0000 </r>
       <r>   -0.4666    1.0000 </r>
       <r>    0.6771    1.0000 </r>
[...]
       <r>   -3.0445    1.0000 </r>
       <r>   -2.1035    1.0000 </r>
       <r>   -1.8500    1.0000 </r>
       <r>   -0.8728    1.0000 </r>
       <r>   -0.8118    1.0000 </r>
       <r>   -0.4491    1.0000 </r>
       <r>    2.1065    1.0000 </r>
       <r>    2.2469    1.0000 </r>
       <r>    2.7257    1.0000 </r>
       <r>    2.7751    1.0000 </r>
       <r>    2.8780    1.0000 </r>
       <r>    3.8863    1.0000 </r>
       <r>    3.9104    1.0000 </r>
       <r>    4.5510    1.0000 </r>
       <r>    6.9613    0.0000 </r>
       <r>    7.5688    0.0000 </r>
       <r>    7.9281    0.0000 </r>
       <r>    7.9896    0.0000 </r>
       <r>    8.2787    0.0000 </r>
       <r>    8.5723    0.0000 </r>
       <r>    8.8916    0.0000 </r>
       <r>    9.0570    0.0000 </r>
      </set>
      <set comment="kpoint 230">
       <r>   -3.9526    1.0000 </r>
       <r>   -3.9088    1.0000 </r>
       <r>   -2.8050    1.0000 </r>
       <r>   -2.2889    1.0000 </r>
       <r>   -1.7181    1.0000 </r>
       <r>   -1.1113    1.0000 </r>
       <r>   -0.8910    1.0000 </r>
       <r>   -0.5399    1.0000 </r>
       <r>    1.9138    1.0000 </r>
       <r>    2.4126    1.0000 </r>
       <r>    2.9793    1.0000 </r>
       <r>    3.1995    1.0000 </r>
       <r>    3.2066    1.0000 </r>
       <r>    4.0097    1.0000 </r>
       <r>    4.1149    1.0000 </r>
       <r>    4.4324    1.0000 </r>
       <r>    6.6216    0.0000 </r>
       <r>    6.8847    0.0000 </r>
       <r>    7.3352    0.0000 </r>
       <r>    7.7355    0.0000 </r>
       <r>    7.8727    0.0000 </r>
       <r>    8.8056    0.0000 </r>
       <r>    9.0084    0.0000 </r>
       <r>    9.4280    0.0000 </r>
      </set>
      <set comment="kpoint 231">
       <r>   -4.1878    1.0000 </r>
       <r>   -3.7010    1.0000 </r>
       <r>   -2.5726    1.0000 </r>
       <r>   -2.5601    1.0000 </r>
       <r>   -1.4034    1.0000 </r>
       <r>   -1.3294    1.0000 </r>
       <r>   -1.0819    1.0000 </r>
       <r>   -0.0325    1.0000 </r>
       <r>    1.6537    1.0000 </r>
       <r>    2.4619    1.0000 </r>
       <r>    2.8107    1.0000 </r>
       <r>    3.1230    1.0000 </r>
       <r>    3.1692    1.0000 </r>
       <r>    3.4914    1.0000 </r>
       <r>    4.0550    1.0000 </r>
       <r>    4.3314    1.0000 </r>
       <r>    6.9086    0.0000 </r>
       <r>    7.2363    0.0000 </r>
       <r>    7.4296    0.0000 </r>
       <r>    7.9850    0.0000 </r>
       <r>    8.0858    0.0000 </r>
       <r>    9.1539    0.0000 </r>
       <r>    9.4920    0.0000 </r>
       <r>    9.5673    0.0000 </r>
      </set>
      <set comment="kpoint 232">
       <r>   -4.3684    1.0000 </r>
       <r>   -3.5088    1.0000 </r>
       <r>   -2.7994    1.0000 </r>
       <r>   -2.4102    1.0000 </r>
       <r>   -1.4047    1.0000 </r>
       <r>   -1.1181    1.0000 </r>
       <r>   -0.9866    1.0000 </r>
       <r>    0.5255    1.0000 </r>
       <r>    1.5834    1.0000 </r>
       <r>    1.9220    1.0000 </r>
       <r>    2.5852    1.0000 </r>
       <r>    2.6448    1.0000 </r>
       <r>    2.7538    1.0000 </r>
       <r>    3.1930    1.0000 </r>
       <r>    3.9696    1.0000 </r>
       <r>    4.3147    1.0000 </r>
       <r>    6.8721    0.0000 </r>
       <r>    7.8203    0.0000 </r>
       <r>    8.4696    0.0000 </r>
       <r>    8.8008    0.0000 </r>
       <r>    8.8702    0.0000 </r>
       <r>    9.1089    0.0000 </r>
       <r>    9.8775    0.0000 </r>
       <r>   10.4009    0.0000 </r>
      </set>
     </set>
    </set>
   </array>
  </eigenvalues>
  <separator name="orbital magnetization" >
   <v name="MAGDIPOLOUT">      0.00000000      0.00000000      0.00000000</v>
  </separator>
  <dos>
   <i name="efermi">      5.81938139 </i>
   <total>
    <array>
     <dimension dim="1">gridpoints</dimension>
     <dimension dim="2">spin</dimension>
     <field>energy</field>
     <field>total</field>
     <field>integrated</field>
     <set>
      <set comment="spin 1">
       <r>    -7.0070     0.0000     0.0000 </r>
       <r>    -6.9446     0.0000     0.0000 </r>
       <r>    -6.8821     0.0000     0.0000 </r>
       <r>    -6.8196     0.0000     0.0000 </r>
       <r>    -6.7571     0.0000     0.0000 </r>
       <r>    -6.6946     0.0000     0.0000 </r>
       <r>    -6.6321     0.0000     0.0000 </r>
       <r>    -6.5696     0.0000     0.0000 </r>
       <r>    -6.5071     0.0000     0.0000 </r>
       <r>    -6.4446     0.0000     0.0000 </r>
       <r>    -6.3821     0.0000     0.0000 </r>
       <r>    -6.3196     0.0000     0.0000 </r>
       <r>    -6.2571     0.0000     0.0000 </r>
       <r>    -6.1947     0.0000     0.0000 </r>
       <r>    -6.1322     0.0692     0.0043 </r>
       <r>    -6.0697     0.3403     0.0256 </r>
       <r>    -6.0072     0.3839     0.0496 </r>
       <r>    -5.9447     0.7794     0.0983 </r>
       <r>    -5.8822     0.4143     0.1242 </r>
       <r>    -5.8197     0.8342     0.1763 </r>
       <r>    -5.7572     0.9791     0.2375 </r>
       <r>    -5.6947     1.2686     0.3168 </r>
       <r>    -5.6322     0.7516     0.3638 </r>
       <r>    -5.5697     0.7112     0.4083 </r>
       <r>    -5.5072     1.0368     0.4731 </r>
       <r>    -5.4448     1.3300     0.5562 </r>
       <r>    -5.3823     1.5517     0.6532 </r>
       <r>    -5.3198     1.3795     0.7395 </r>
       <r>    -5.2573     1.2407     0.8170 </r>
       <r>    -5.1948     1.3663     0.9024 </r>
       <r>    -5.1323     1.5087     0.9967 </r>
       <r>    -5.0698     1.6487     1.0997 </r>
       <r>    -5.0073     1.2525     1.1781 </r>
       <r>    -4.9448     1.4943     1.2714 </r>
       <r>    -4.8823     1.7923     1.3835 </r>
       <r>    -4.8198     2.2195     1.5222 </r>
       <r>    -4.7573     1.3211     1.6048 </r>
       <r>    -4.6949     2.1417     1.7386 </r>
       <r>    -4.6324     2.1183     1.8710 </r>
       <r>    -4.5699     1.6402     1.9735 </r>
       <r>    -4.5074     2.2171     2.1121 </r>
       <r>    -4.4449     1.6504     2.2153 </r>
       <r>    -4.3824     1.9281     2.3358 </r>
       <r>    -4.3199     3.0780     2.5282 </r>
       <r>    -4.2574     1.8941     2.6466 </r>
       <r>    -4.1949     2.1907     2.7836 </r>
       <r>    -4.1324     3.0452     2.9739 </r>
       <r>    -4.0699     2.0717     3.1034 </r>
       <r>    -4.0074     3.2912     3.3091 </r>
       <r>    -3.9450     2.8493     3.4873 </r>
       <r>    -3.8825     3.4941     3.7056 </r>
       <r>    -3.8200     1.9524     3.8277 </r>
       <r>    -3.7575     3.1121     4.0222 </r>
       <r>    -3.6950     3.8871     4.2651 </r>
       <r>    -3.6325     4.5621     4.5502 </r>
       <r>    -3.5700     3.0453     4.7405 </r>
       <r>    -3.5075     3.5770     4.9641 </r>
       <r>    -3.4450     3.3121     5.1712 </r>
       <r>    -3.3825     2.0362     5.2984 </r>
       <r>    -3.3200     2.5119     5.4554 </r>
       <r>    -3.2575     3.4296     5.6698 </r>
       <r>    -3.1951     2.7290     5.8403 </r>
       <r>    -3.1326     3.1247     6.0356 </r>
       <r>    -3.0701     2.7814     6.2095 </r>
       <r>    -3.0076     2.4644     6.3636 </r>
       <r>    -2.9451     2.1874     6.5003 </r>
       <r>    -2.8826     2.1548     6.6349 </r>
       <r>    -2.8201     2.0021     6.7601 </r>
       <r>    -2.7576     2.5370     6.9186 </r>
       <r>    -2.6951     2.5717     7.0793 </r>
       <r>    -2.6326     2.4269     7.2310 </r>
       <r>    -2.5701     1.4993     7.3247 </r>
       <r>    -2.5076     0.9807     7.3860 </r>
       <r>    -2.4452     1.5707     7.4842 </r>
       <r>    -2.3827     2.0176     7.6103 </r>
       <r>    -2.3202     1.4667     7.7020 </r>
       <r>    -2.2577     0.8980     7.7581 </r>
       <r>    -2.1952     1.5226     7.8533 </r>
       <r>    -2.1327     1.3229     7.9359 </r>
       <r>    -2.0702     0.6979     7.9796 </r>
       <r>    -2.0077     0.1886     7.9913 </r>
       <r>    -1.9452     0.1383     8.0000 </r>
       <r>    -1.8827     0.2783     8.0174 </r>
       <r>    -1.8202     0.6884     8.0605 </r>
       <r>    -1.7577     0.7395     8.1067 </r>
       <r>    -1.6952     0.7917     8.1562 </r>
       <r>    -1.6328     0.5154     8.1884 </r>
       <r>    -1.5703     1.2767     8.2682 </r>
       <r>    -1.5078     1.6081     8.3687 </r>
       <r>    -1.4453     1.4077     8.4567 </r>
       <r>    -1.3828     2.3675     8.6046 </r>
       <r>    -1.3203     1.2413     8.6822 </r>
       <r>    -1.2578     1.6849     8.7876 </r>
       <r>    -1.1953     2.3104     8.9320 </r>
       <r>    -1.1328     2.8648     9.1111 </r>
       <r>    -1.0703     4.4872     9.3916 </r>
       <r>    -1.0078     5.7726     9.7523 </r>
       <r>    -0.9453     7.3506    10.2118 </r>
       <r>    -0.8829     4.3552    10.4841 </r>
       <r>    -0.8204     4.4017    10.7592 </r>
       <r>    -0.7579     3.2390    10.9617 </r>
       <r>    -0.6954     3.5700    11.1848 </r>
       <r>    -0.6329     4.0428    11.4375 </r>
       <r>    -0.5704     3.8221    11.6764 </r>
       <r>    -0.5079     2.0062    11.8017 </r>
       <r>    -0.4454     1.6654    11.9059 </r>
       <r>    -0.3829     2.0257    12.0325 </r>
       <r>    -0.3204     2.4037    12.1827 </r>
       <r>    -0.2579     2.2821    12.3254 </r>
       <r>    -0.1954     2.6766    12.4927 </r>
       <r>    -0.1330     2.0264    12.6193 </r>
       <r>    -0.0705     2.3954    12.7691 </r>
       <r>    -0.0080     1.8920    12.8873 </r>
       <r>     0.0545     0.8635    12.9413 </r>
       <r>     0.1170     2.5609    13.1013 </r>
       <r>     0.1795     1.9614    13.2239 </r>
       <r>     0.2420     1.6313    13.3259 </r>
       <r>     0.3045     1.3853    13.4124 </r>
       <r>     0.3670     1.2660    13.4916 </r>
       <r>     0.4295     1.1019    13.5604 </r>
       <r>     0.4920     2.0377    13.6878 </r>
       <r>     0.5545     1.5246    13.7831 </r>
       <r>     0.6169     1.6987    13.8893 </r>
       <r>     0.6794     0.8138    13.9402 </r>
       <r>     0.7419     0.6131    13.9785 </r>
       <r>     0.8044     0.9167    14.0358 </r>
       <r>     0.8669     1.2502    14.1140 </r>
       <r>     0.9294     1.3443    14.1980 </r>
       <r>     0.9919     1.4277    14.2872 </r>
       <r>     1.0544     1.2915    14.3679 </r>
       <r>     1.1169     1.3425    14.4519 </r>
       <r>     1.1794     0.6235    14.4909 </r>
       <r>     1.2419     0.9379    14.5495 </r>
       <r>     1.3044     0.6837    14.5923 </r>
       <r>     1.3668     1.1760    14.6658 </r>
       <r>     1.4293     1.2900    14.7464 </r>
       <r>     1.4918     2.3850    14.8954 </r>
       <r>     1.5543     2.5348    15.0538 </r>
       <r>     1.6168     5.2250    15.3804 </r>
       <r>     1.6793     4.2077    15.6434 </r>
       <r>     1.7418     4.8633    15.9474 </r>
       <r>     1.8043     3.9212    16.1926 </r>
       <r>     1.8668     4.8027    16.4927 </r>
       <r>     1.9293     4.8585    16.7964 </r>
       <r>     1.9918     4.3466    17.0681 </r>
       <r>     2.0543     2.4940    17.2240 </r>
       <r>     2.1167     4.4326    17.5011 </r>
       <r>     2.1792     6.5478    17.9104 </r>
       <r>     2.2417     4.1675    18.1710 </r>
       <r>     2.3042     3.6316    18.3980 </r>
       <r>     2.3667     4.1381    18.6567 </r>
       <r>     2.4292     3.3926    18.8689 </r>
       <r>     2.4917     3.0244    19.0579 </r>
       <r>     2.5542     3.0325    19.2475 </r>
       <r>     2.6167     6.4966    19.6535 </r>
       <r>     2.6792     5.7816    20.0150 </r>
       <r>     2.7417     4.9503    20.3244 </r>
       <r>     2.8042     4.1934    20.5865 </r>
       <r>     2.8666     5.9655    20.9594 </r>
       <r>     2.9291     4.7246    21.2548 </r>
       <r>     2.9916     6.5967    21.6671 </r>
       <r>     3.0541     6.4095    22.0677 </r>
       <r>     3.1166     6.6462    22.4831 </r>
       <r>     3.1791     6.5902    22.8950 </r>
       <r>     3.2416     5.1367    23.2160 </r>
       <r>     3.3041     5.3042    23.5475 </r>
       <r>     3.3666     4.8206    23.8488 </r>
       <r>     3.4291     4.8725    24.1534 </r>
       <r>     3.4916     5.5172    24.4982 </r>
       <r>     3.5541     8.0891    25.0038 </r>
       <r>     3.6165     5.3822    25.3402 </r>
       <r>     3.6790     4.8772    25.6451 </r>
       <r>     3.7415     4.4675    25.9244 </r>
       <r>     3.8040     4.3170    26.1943 </r>
       <r>     3.8665     5.2004    26.5194 </r>
       <r>     3.9290     5.7659    26.8798 </r>
       <r>     3.9915     5.5736    27.2282 </r>
       <r>     4.0540     5.8314    27.5927 </r>
       <r>     4.1165     5.6337    27.9448 </r>
       <r>     4.1790     5.2493    28.2730 </r>
       <r>     4.2415     3.9793    28.5217 </r>
       <r>     4.3040     3.2497    28.7248 </r>
       <r>     4.3664     5.5417    29.0712 </r>
       <r>     4.4289     4.7915    29.3706 </r>
       <r>     4.4914     3.4169    29.5842 </r>
       <r>     4.5539     4.5153    29.8664 </r>
       <r>     4.6164     4.0402    30.1190 </r>
       <r>     4.6789     3.2188    30.3202 </r>
       <r>     4.7414     4.1853    30.5817 </r>
       <r>     4.8039     2.7341    30.7526 </r>
       <r>     4.8664     2.0816    30.8827 </r>
       <r>     4.9289     2.9850    31.0693 </r>
       <r>     4.9914     1.7107    31.1763 </r>
       <r>     5.0539     1.6055    31.2767 </r>
       <r>     5.1163     2.0929    31.4075 </r>
       <r>     5.1788     1.5140    31.5021 </r>
       <r>     5.2413     1.2576    31.5808 </r>
       <r>     5.3038     1.3774    31.6669 </r>
       <r>     5.3663     1.0836    31.7346 </r>
       <r>     5.4288     1.1437    31.8061 </r>
       <r>     5.4913     0.8118    31.8568 </r>
       <r>     5.5538     0.8387    31.9093 </r>
       <r>     5.6163     0.6584    31.9504 </r>
       <r>     5.6788     0.5776    31.9865 </r>
       <r>     5.7413     0.0481    31.9896 </r>
       <r>     5.8038     0.1668    32.0000 </r>
       <r>     5.8663     0.0000    32.0000 </r>
       <r>     5.9287     0.0000    32.0000 </r>
       <r>     5.9912     0.0000    32.0000 </r>
       <r>     6.0537     0.0000    32.0000 </r>
       <r>     6.1162     0.0000    32.0000 </r>
       <r>     6.1787     0.0000    32.0000 </r>
       <r>     6.2412     0.0000    32.0000 </r>
       <r>     6.3037     0.0000    32.0000 </r>
       <r>     6.3662     0.1385    32.0087 </r>
       <r>     6.4287     0.1538    32.0183 </r>
       <r>     6.4912     0.6685    32.0600 </r>
       <r>     6.5537     1.0898    32.1282 </r>
       <r>     6.6162     1.0366    32.1930 </r>
       <r>     6.6786     1.2655    32.2721 </r>
       <r>     6.7411     0.7157    32.3168 </r>
       <r>     6.8036     1.8419    32.4319 </r>
       <r>     6.8661     1.3302    32.5151 </r>
       <r>     6.9286     1.7260    32.6230 </r>
       <r>     6.9911     2.2379    32.7629 </r>
       <r>     7.0536     2.3701    32.9110 </r>
       <r>     7.1161     1.4906    33.0042 </r>
       <r>     7.1786     1.7326    33.1125 </r>
       <r>     7.2411     4.0012    33.3625 </r>
       <r>     7.3036     2.6618    33.5289 </r>
       <r>     7.3661     3.4729    33.7459 </r>
       <r>     7.4285     2.6617    33.9123 </r>
       <r>     7.4910     2.6004    34.0748 </r>
       <r>     7.5535     3.6078    34.3003 </r>
       <r>     7.6160     3.7461    34.5344 </r>
       <r>     7.6785     4.5893    34.8213 </r>
       <r>     7.7410     5.3154    35.1535 </r>
       <r>     7.8035     4.4329    35.4308 </r>
       <r>     7.8660     4.5746    35.7167 </r>
       <r>     7.9285     7.7190    36.1991 </r>
       <r>     7.9910     5.2692    36.5285 </r>
       <r>     8.0535     5.6677    36.8828 </r>
       <r>     8.1160     6.1984    37.2702 </r>
       <r>     8.1784     5.7187    37.6276 </r>
       <r>     8.2409     6.2158    38.0162 </r>
       <r>     8.3034     5.3889    38.3530 </r>
       <r>     8.3659     5.4733    38.6952 </r>
       <r>     8.4284     6.2244    39.0842 </r>
       <r>     8.4909     5.3842    39.4207 </r>
       <r>     8.5534     3.8275    39.6599 </r>
       <r>     8.6159     4.2080    39.9229 </r>
       <r>     8.6784     5.0131    40.2363 </r>
       <r>     8.7409     4.2277    40.5007 </r>
       <r>     8.8034     4.8989    40.8069 </r>
       <r>     8.8659     4.1679    41.0675 </r>
       <r>     8.9283     4.9903    41.3794 </r>
       <r>     8.9908     6.5938    41.7916 </r>
       <r>     9.0533     9.7530    42.4012 </r>
       <r>     9.1158     8.2201    42.9150 </r>
       <r>     9.1783     7.4370    43.3798 </r>
       <r>     9.2408     7.6991    43.8611 </r>
       <r>     9.3033     5.9525    44.2332 </r>
       <r>     9.3658     5.7172    44.5906 </r>
       <r>     9.4283     5.2467    44.9186 </r>
       <r>     9.4908     4.0982    45.1748 </r>
       <r>     9.5533     5.2119    45.5007 </r>
       <r>     9.6158     5.2548    45.8291 </r>
       <r>     9.6782     6.2525    46.2199 </r>
       <r>     9.7407     3.9773    46.4687 </r>
       <r>     9.8032     2.6876    46.6367 </r>
       <r>     9.8657     3.0714    46.8286 </r>
       <r>     9.9282     3.0594    47.0199 </r>
       <r>     9.9907     1.9170    47.1397 </r>
       <r>    10.0532     1.7678    47.2502 </r>
       <r>    10.1157     1.9761    47.3737 </r>
       <r>    10.1782     1.7776    47.4848 </r>
       <r>    10.2407     1.1757    47.5583 </r>
       <r>    10.3032     1.6112    47.6590 </r>
       <r>    10.3657     0.6935    47.7024 </r>
       <r>    10.4281     1.6237    47.8038 </r>
       <r>    10.4906     1.2806    47.8839 </r>
       <r>    10.5531     0.6180    47.9225 </r>
       <r>    10.6156     0.3178    47.9424 </r>
       <r>    10.6781     0.0904    47.9481 </r>
       <r>    10.7406     0.2766    47.9653 </r>
       <r>    10.8031     0.0000    47.9654 </r>
       <r>    10.8656     0.3432    47.9868 </r>
       <r>    10.9281     0.2110    48.0000 </r>
       <r>    10.9906     0.0000    48.0000 </r>
       <r>    11.0531     0.0000    48.0000 </r>
       <r>    11.1156     0.0000    48.0000 </r>
       <r>    11.1780     0.0000    48.0000 </r>
       <r>    11.2405     0.0000    48.0000 </r>
       <r>    11.3030     0.0000    48.0000 </r>
       <r>    11.3655     0.0000    48.0000 </r>
       <r>    11.4280     0.0000    48.0000 </r>
       <r>    11.4905     0.0000    48.0000 </r>
       <r>    11.5530     0.0000    48.0000 </r>
       <r>    11.6155     0.0000    48.0000 </r>
       <r>    11.6780     0.0000    48.0000 </r>
       <r>    11.7405     0.0000    48.0000 </r>
      </set>
     </set>
    </array>
   </total>
  </dos>
 </calculation>
 <structure name="finalpos" >
  <crystal>
   <varray name="basis" >
    <v>      -2.72185119       2.72185119       5.44370237 </v>
    <v>       2.72185119      -5.44370237       2.72185119 </v>
    <v>       2.72185119       2.72185119       0.00000000 </v>
   </varray>
   <i name="volume">    161.31810740 </i>
   <varray name="rec_basis" >
    <v>      -0.04592463       0.04592463       0.13777388 </v>
    <v>       0.09184925      -0.09184925       0.09184925 </v>
    <v>       0.22962313       0.13777388       0.04592463 </v>
   </varray>
  </crystal>
  <varray name="positions" >
   <v>       0.00000000       0.99850011       0.00000000 </v>
   <v>       0.50000000       0.00000000       0.50000000 </v>
   <v>       0.25000000       0.50000000       0.75000000 </v>
   <v>       0.75000000       0.50000000       0.25000000 </v>
   <v>       0.18750000       0.12500000       0.56250000 </v>
   <v>       0.68750000       0.12500000       0.06250000 </v>
   <v>       0.43750000       0.62500000       0.31250000 </v>
   <v>       0.93750000       0.62500000       0.81250000 </v>
  </varray>
 </structure>
</modeling>
