<?xml version="1.0" encoding="ISO-8859-1"?>
<modeling>
 <generator>
  <i name="program" type="string">vasp </i>
  <i name="version" type="string">6.4.3  </i>
  <i name="subversion" type="string">19Mar24 (build Jun 20 2024 15:56:09) complex                          parallel </i>
  <i name="platform" type="string">LinuxNV_CrayMPICH </i>
  <i name="date" type="string">2025 01 13 </i>
  <i name="time" type="string">17:56:52 </i>
 </generator>
 <incar>
  <i type="string" name="PREC">Accurate</i>
  <i type="int" name="IBRION">    -1</i>
  <i name="EDIFF">      0.00000001</i>
  <i type="int" name="NSW">     0</i>
  <i name="ENCUT">    500.00000000</i>
  <i type="logical" name="LREAL"> F  </i>
  <i type="int" name="ISMEAR">     0</i>
  <i name="SIGMA">      0.01000000</i>
  <i type="logical" name="LWAVE"> F  </i>
  <i type="logical" name="LCHARG"> F  </i>
 </incar>
 <primitive_cell>
  <structure name="primitive_cell" >
   <crystal>
    <varray name="basis" >
     <v>      -0.00000000      -0.00000000       5.44370237 </v>
     <v>       5.44370237      -5.44370237       0.00000000 </v>
     <v>       2.72185119       2.72185119       0.00000000 </v>
    </varray>
    <i name="volume">    161.31810740 </i>
    <varray name="rec_basis" >
     <v>      -0.00000000       0.00000000       0.18369851 </v>
     <v>       0.09184925      -0.09184925      -0.00000000 </v>
     <v>       0.18369851       0.18369851       0.00000000 </v>
    </varray>
   </crystal>
   <varray name="positions" >
    <v>       0.99901809       0.99901809       0.99901809 </v>
    <v>       0.50000000       0.75000000       0.50000000 </v>
    <v>       1.00000000       0.50000000       1.00000000 </v>
    <v>       0.50000000       0.25000000       0.50000000 </v>
    <v>       0.25000000       0.00000000       0.50000000 </v>
    <v>       0.75000000       0.75000000       1.00000000 </v>
    <v>       0.25000000       0.50000000       0.50000000 </v>
    <v>       0.75000000       0.25000000       1.00000000 </v>
   </varray>
  </structure>
  <varray name="primitive_index" >
   <v type="int" >        1 </v>
   <v type="int" >        2 </v>
   <v type="int" >        3 </v>
   <v type="int" >        4 </v>
   <v type="int" >        5 </v>
   <v type="int" >        6 </v>
   <v type="int" >        7 </v>
   <v type="int" >        8 </v>
  </varray>
 </primitive_cell>
 <kpoints>
  <generation param="Gamma">
   <v type="int" name="divisions">       8        5       11 </v>
   <v name="usershift">      0.00000000       0.00000000       0.00000000 </v>
   <v name="genvec1">      0.12500000      -0.00000000      -0.00000000 </v>
   <v name="genvec2">     -0.00000000       0.20000000      -0.00000000 </v>
   <v name="genvec3">      0.00000000      -0.00000000       0.09090909 </v>
   <v name="shift">      0.00000000       0.00000000       0.00000000 </v>
  </generation>
  <varray name="kpointlist" >
   <v>       0.00000000       0.00000000       0.00000000 </v>
   <v>       0.12500000       0.00000000       0.00000000 </v>
   <v>       0.25000000       0.00000000       0.00000000 </v>
   <v>       0.37500000       0.00000000       0.00000000 </v>
   <v>       0.50000000       0.00000000       0.00000000 </v>
   <v>       0.00000000       0.20000000       0.00000000 </v>
   <v>       0.12500000       0.20000000       0.00000000 </v>
   <v>       0.12500000      -0.20000000       0.00000000 </v>
   <v>       0.25000000       0.20000000       0.00000000 </v>
   <v>       0.25000000      -0.20000000       0.00000000 </v>
   <v>       0.37500000       0.20000000       0.00000000 </v>
   <v>       0.37500000      -0.20000000       0.00000000 </v>
   <v>       0.50000000       0.20000000       0.00000000 </v>
   <v>       0.00000000       0.40000000       0.00000000 </v>
   <v>       0.12500000       0.40000000       0.00000000 </v>
   <v>       0.12500000      -0.40000000       0.00000000 </v>
   <v>       0.25000000       0.40000000       0.00000000 </v>
   <v>       0.25000000      -0.40000000       0.00000000 </v>
   <v>       0.37500000       0.40000000       0.00000000 </v>
   <v>       0.37500000      -0.40000000       0.00000000 </v>
   <v>       0.50000000       0.40000000       0.00000000 </v>
   <v>       0.00000000       0.00000000       0.09090909 </v>
   <v>       0.12500000       0.00000000       0.09090909 </v>
   <v>      -0.12500000       0.00000000       0.09090909 </v>
   <v>       0.25000000       0.00000000       0.09090909 </v>
   <v>      -0.25000000       0.00000000       0.09090909 </v>
   <v>       0.37500000       0.00000000       0.09090909 </v>
   <v>      -0.37500000       0.00000000       0.09090909 </v>
   <v>       0.50000000       0.00000000       0.09090909 </v>
   <v>       0.00000000       0.20000000       0.09090909 </v>
   <v>       0.00000000      -0.20000000       0.09090909 </v>
   <v>       0.12500000       0.20000000       0.09090909 </v>
   <v>      -0.12500000      -0.20000000       0.09090909 </v>
   <v>       0.12500000      -0.20000000      -0.09090909 </v>
   <v>      -0.12500000       0.20000000      -0.09090909 </v>
   <v>       0.25000000       0.20000000       0.09090909 </v>
   <v>      -0.25000000      -0.20000000       0.09090909 </v>
   <v>       0.25000000      -0.20000000      -0.09090909 </v>
   <v>      -0.25000000       0.20000000      -0.09090909 </v>
   <v>       0.37500000       0.20000000       0.09090909 </v>
   <v>      -0.37500000      -0.20000000       0.09090909 </v>
   <v>       0.37500000      -0.20000000      -0.09090909 </v>
   <v>      -0.37500000       0.20000000      -0.09090909 </v>
   <v>       0.50000000       0.20000000       0.09090909 </v>
   <v>       0.50000000      -0.20000000       0.09090909 </v>
   <v>       0.00000000       0.40000000       0.09090909 </v>
   <v>       0.00000000      -0.40000000       0.09090909 </v>
   <v>       0.12500000       0.40000000       0.09090909 </v>
   <v>      -0.12500000      -0.40000000       0.09090909 </v>
   <v>       0.12500000      -0.40000000      -0.09090909 </v>
   <v>      -0.12500000       0.40000000      -0.09090909 </v>
   <v>       0.25000000       0.40000000       0.09090909 </v>
   <v>      -0.25000000      -0.40000000       0.09090909 </v>
   <v>       0.25000000      -0.40000000      -0.09090909 </v>
   <v>      -0.25000000       0.40000000      -0.09090909 </v>
   <v>       0.37500000       0.40000000       0.09090909 </v>
   <v>      -0.37500000      -0.40000000       0.09090909 </v>
   <v>       0.37500000      -0.40000000      -0.09090909 </v>
   <v>      -0.37500000       0.40000000      -0.09090909 </v>
   <v>       0.50000000       0.40000000       0.09090909 </v>
   <v>       0.50000000      -0.40000000       0.09090909 </v>
   <v>       0.00000000       0.00000000       0.18181818 </v>
   <v>       0.12500000       0.00000000       0.18181818 </v>
   <v>      -0.12500000       0.00000000       0.18181818 </v>
   <v>       0.25000000       0.00000000       0.18181818 </v>
   <v>      -0.25000000       0.00000000       0.18181818 </v>
   <v>       0.37500000       0.00000000       0.18181818 </v>
   <v>      -0.37500000       0.00000000       0.18181818 </v>
   <v>       0.50000000       0.00000000       0.18181818 </v>
   <v>       0.00000000       0.20000000       0.18181818 </v>
   <v>       0.00000000      -0.20000000       0.18181818 </v>
   <v>       0.12500000       0.20000000       0.18181818 </v>
   <v>      -0.12500000      -0.20000000       0.18181818 </v>
   <v>       0.12500000      -0.20000000      -0.18181818 </v>
   <v>      -0.12500000       0.20000000      -0.18181818 </v>
   <v>       0.25000000       0.20000000       0.18181818 </v>
   <v>      -0.25000000      -0.20000000       0.18181818 </v>
   <v>       0.25000000      -0.20000000      -0.18181818 </v>
   <v>      -0.25000000       0.20000000      -0.18181818 </v>
   <v>       0.37500000       0.20000000       0.18181818 </v>
   <v>      -0.37500000      -0.20000000       0.18181818 </v>
   <v>       0.37500000      -0.20000000      -0.18181818 </v>
   <v>      -0.37500000       0.20000000      -0.18181818 </v>
   <v>       0.50000000       0.20000000       0.18181818 </v>
   <v>       0.50000000      -0.20000000       0.18181818 </v>
   <v>       0.00000000       0.40000000       0.18181818 </v>
   <v>       0.00000000      -0.40000000       0.18181818 </v>
   <v>       0.12500000       0.40000000       0.18181818 </v>
   <v>      -0.12500000      -0.40000000       0.18181818 </v>
   <v>       0.12500000      -0.40000000      -0.18181818 </v>
   <v>      -0.12500000       0.40000000      -0.18181818 </v>
   <v>       0.25000000       0.40000000       0.18181818 </v>
   <v>      -0.25000000      -0.40000000       0.18181818 </v>
   <v>       0.25000000      -0.40000000      -0.18181818 </v>
   <v>      -0.25000000       0.40000000      -0.18181818 </v>
   <v>       0.37500000       0.40000000       0.18181818 </v>
   <v>      -0.37500000      -0.40000000       0.18181818 </v>
   <v>       0.37500000      -0.40000000      -0.18181818 </v>
   <v>      -0.37500000       0.40000000      -0.18181818 </v>
   <v>       0.50000000       0.40000000       0.18181818 </v>
   <v>       0.50000000      -0.40000000       0.18181818 </v>
   <v>       0.00000000       0.00000000       0.27272727 </v>
   <v>       0.12500000       0.00000000       0.27272727 </v>
   <v>      -0.12500000       0.00000000       0.27272727 </v>
   <v>       0.25000000       0.00000000       0.27272727 </v>
   <v>      -0.25000000       0.00000000       0.27272727 </v>
   <v>       0.37500000       0.00000000       0.27272727 </v>
   <v>      -0.37500000       0.00000000       0.27272727 </v>
   <v>       0.50000000       0.00000000       0.27272727 </v>
   <v>       0.00000000       0.20000000       0.27272727 </v>
   <v>       0.00000000      -0.20000000       0.27272727 </v>
   <v>       0.12500000       0.20000000       0.27272727 </v>
   <v>      -0.12500000      -0.20000000       0.27272727 </v>
   <v>       0.12500000      -0.20000000      -0.27272727 </v>
   <v>      -0.12500000       0.20000000      -0.27272727 </v>
   <v>       0.25000000       0.20000000       0.27272727 </v>
   <v>      -0.25000000      -0.20000000       0.27272727 </v>
   <v>       0.25000000      -0.20000000      -0.27272727 </v>
   <v>      -0.25000000       0.20000000      -0.27272727 </v>
   <v>       0.37500000       0.20000000       0.27272727 </v>
   <v>      -0.37500000      -0.20000000       0.27272727 </v>
   <v>       0.37500000      -0.20000000      -0.27272727 </v>
   <v>      -0.37500000       0.20000000      -0.27272727 </v>
   <v>       0.50000000       0.20000000       0.27272727 </v>
   <v>       0.50000000      -0.20000000       0.27272727 </v>
   <v>       0.00000000       0.40000000       0.27272727 </v>
   <v>       0.00000000      -0.40000000       0.27272727 </v>
   <v>       0.12500000       0.40000000       0.27272727 </v>
   <v>      -0.12500000      -0.40000000       0.27272727 </v>
   <v>       0.12500000      -0.40000000      -0.27272727 </v>
   <v>      -0.12500000       0.40000000      -0.27272727 </v>
   <v>       0.25000000       0.40000000       0.27272727 </v>
   <v>      -0.25000000      -0.40000000       0.27272727 </v>
   <v>       0.25000000      -0.40000000      -0.27272727 </v>
   <v>      -0.25000000       0.40000000      -0.27272727 </v>
   <v>       0.37500000       0.40000000       0.27272727 </v>
   <v>      -0.37500000      -0.40000000       0.27272727 </v>
   <v>       0.37500000      -0.40000000      -0.27272727 </v>
   <v>      -0.37500000       0.40000000      -0.27272727 </v>
   <v>       0.50000000       0.40000000       0.27272727 </v>
   <v>       0.50000000      -0.40000000       0.27272727 </v>
   <v>       0.00000000       0.00000000       0.36363636 </v>
   <v>       0.12500000       0.00000000       0.36363636 </v>
   <v>      -0.12500000       0.00000000       0.36363636 </v>
   <v>       0.25000000       0.00000000       0.36363636 </v>
   <v>      -0.25000000       0.00000000       0.36363636 </v>
   <v>       0.37500000       0.00000000       0.36363636 </v>
   <v>      -0.37500000       0.00000000       0.36363636 </v>
   <v>       0.50000000       0.00000000       0.36363636 </v>
   <v>       0.00000000       0.20000000       0.36363636 </v>
   <v>       0.00000000      -0.20000000       0.36363636 </v>
   <v>       0.12500000       0.20000000       0.36363636 </v>
   <v>      -0.12500000      -0.20000000       0.36363636 </v>
   <v>       0.12500000      -0.20000000      -0.36363636 </v>
   <v>      -0.12500000       0.20000000      -0.36363636 </v>
   <v>       0.25000000       0.20000000       0.36363636 </v>
   <v>      -0.25000000      -0.20000000       0.36363636 </v>
   <v>       0.25000000      -0.20000000      -0.36363636 </v>
   <v>      -0.25000000       0.20000000      -0.36363636 </v>
   <v>       0.37500000       0.20000000       0.36363636 </v>
   <v>      -0.37500000      -0.20000000       0.36363636 </v>
   <v>       0.37500000      -0.20000000      -0.36363636 </v>
   <v>      -0.37500000       0.20000000      -0.36363636 </v>
   <v>       0.50000000       0.20000000       0.36363636 </v>
   <v>       0.50000000      -0.20000000       0.36363636 </v>
   <v>       0.00000000       0.40000000       0.36363636 </v>
   <v>       0.00000000      -0.40000000       0.36363636 </v>
   <v>       0.12500000       0.40000000       0.36363636 </v>
   <v>      -0.12500000      -0.40000000       0.36363636 </v>
   <v>       0.12500000      -0.40000000      -0.36363636 </v>
   <v>      -0.12500000       0.40000000      -0.36363636 </v>
   <v>       0.25000000       0.40000000       0.36363636 </v>
   <v>      -0.25000000      -0.40000000       0.36363636 </v>
   <v>       0.25000000      -0.40000000      -0.36363636 </v>
   <v>      -0.25000000       0.40000000      -0.36363636 </v>
   <v>       0.37500000       0.40000000       0.36363636 </v>
   <v>      -0.37500000      -0.40000000       0.36363636 </v>
   <v>       0.37500000      -0.40000000      -0.36363636 </v>
   <v>      -0.37500000       0.40000000      -0.36363636 </v>
   <v>       0.50000000       0.40000000       0.36363636 </v>
   <v>       0.50000000      -0.40000000       0.36363636 </v>
   <v>       0.00000000       0.00000000       0.45454545 </v>
   <v>       0.12500000       0.00000000       0.45454545 </v>
   <v>      -0.12500000       0.00000000       0.45454545 </v>
   <v>       0.25000000       0.00000000       0.45454545 </v>
   <v>      -0.25000000       0.00000000       0.45454545 </v>
   <v>       0.37500000       0.00000000       0.45454545 </v>
   <v>      -0.37500000       0.00000000       0.45454545 </v>
   <v>       0.50000000       0.00000000       0.45454545 </v>
   <v>       0.00000000       0.20000000       0.45454545 </v>
   <v>       0.00000000      -0.20000000       0.45454545 </v>
   <v>       0.12500000       0.20000000       0.45454545 </v>
   <v>      -0.12500000      -0.20000000       0.45454545 </v>
   <v>       0.12500000      -0.20000000      -0.45454545 </v>
   <v>      -0.12500000       0.20000000      -0.45454545 </v>
   <v>       0.25000000       0.20000000       0.45454545 </v>
   <v>      -0.25000000      -0.20000000       0.45454545 </v>
   <v>       0.25000000      -0.20000000      -0.45454545 </v>
   <v>      -0.25000000       0.20000000      -0.45454545 </v>
   <v>       0.37500000       0.20000000       0.45454545 </v>
   <v>      -0.37500000      -0.20000000       0.45454545 </v>
   <v>       0.37500000      -0.20000000      -0.45454545 </v>
   <v>      -0.37500000       0.20000000      -0.45454545 </v>
   <v>       0.50000000       0.20000000       0.45454545 </v>
   <v>       0.50000000      -0.20000000       0.45454545 </v>
   <v>       0.00000000       0.40000000       0.45454545 </v>
   <v>       0.00000000      -0.40000000       0.45454545 </v>
   <v>       0.12500000       0.40000000       0.45454545 </v>
   <v>      -0.12500000      -0.40000000       0.45454545 </v>
   <v>       0.12500000      -0.40000000      -0.45454545 </v>
   <v>      -0.12500000       0.40000000      -0.45454545 </v>
   <v>       0.25000000       0.40000000       0.45454545 </v>
   <v>      -0.25000000      -0.40000000       0.45454545 </v>
   <v>       0.25000000      -0.40000000      -0.45454545 </v>
   <v>      -0.25000000       0.40000000      -0.45454545 </v>
   <v>       0.37500000       0.40000000       0.45454545 </v>
   <v>      -0.37500000      -0.40000000       0.45454545 </v>
   <v>       0.37500000      -0.40000000      -0.45454545 </v>
   <v>      -0.37500000       0.40000000      -0.45454545 </v>
   <v>       0.50000000       0.40000000       0.45454545 </v>
   <v>       0.50000000      -0.40000000       0.45454545 </v>
  </varray>
  <varray name="weights" >
   <v>       0.00227273 </v>
   <v>       0.00454545 </v>
   <v>       0.00454545 </v>
   <v>       0.00454545 </v>
   <v>       0.00227273 </v>
   <v>       0.00454545 </v>
   <v>       0.00454545 </v>
   <v>       0.00454545 </v>
   <v>       0.00454545 </v>
   <v>       0.00454545 </v>
   <v>       0.00454545 </v>
   <v>       0.00454545 </v>
   <v>       0.00454545 </v>
   <v>       0.00454545 </v>
   <v>       0.00454545 </v>
   <v>       0.00454545 </v>
   <v>       0.00454545 </v>
   <v>       0.00454545 </v>
   <v>       0.00454545 </v>
   <v>       0.00454545 </v>
   <v>       0.00454545 </v>
   <v>       0.00454545 </v>
   <v>       0.00454545 </v>
   <v>       0.00454545 </v>
   <v>       0.00454545 </v>
   <v>       0.00454545 </v>
   <v>       0.00454545 </v>
   <v>       0.00454545 </v>
   <v>       0.00454545 </v>
   <v>       0.00454545 </v>
   <v>       0.00454545 </v>
   <v>       0.00454545 </v>
   <v>       0.00454545 </v>
   <v>       0.00454545 </v>
   <v>       0.00454545 </v>
   <v>       0.00454545 </v>
   <v>       0.00454545 </v>
   <v>       0.00454545 </v>
   <v>       0.00454545 </v>
   <v>       0.00454545 </v>
   <v>       0.00454545 </v>
   <v>       0.00454545 </v>
   <v>       0.00454545 </v>
   <v>       0.00454545 </v>
   <v>       0.00454545 </v>
   <v>       0.00454545 </v>
   <v>       0.00454545 </v>
   <v>       0.00454545 </v>
   <v>       0.00454545 </v>
   <v>       0.00454545 </v>
   <v>       0.00454545 </v>
   <v>       0.00454545 </v>
   <v>       0.00454545 </v>
   <v>       0.00454545 </v>
   <v>       0.00454545 </v>
   <v>       0.00454545 </v>
   <v>       0.00454545 </v>
   <v>       0.00454545 </v>
   <v>       0.00454545 </v>
   <v>       0.00454545 </v>
   <v>       0.00454545 </v>
   <v>       0.00454545 </v>
   <v>       0.00454545 </v>
   <v>       0.00454545 </v>
   <v>       0.00454545 </v>
   <v>       0.00454545 </v>
   <v>       0.00454545 </v>
   <v>       0.00454545 </v>
   <v>       0.00454545 </v>
   <v>       0.00454545 </v>
   <v>       0.00454545 </v>
   <v>       0.00454545 </v>
   <v>       0.00454545 </v>
   <v>       0.00454545 </v>
   <v>       0.00454545 </v>
   <v>       0.00454545 </v>
   <v>       0.00454545 </v>
   <v>       0.00454545 </v>
   <v>       0.00454545 </v>
   <v>       0.00454545 </v>
   <v>       0.00454545 </v>
   <v>       0.00454545 </v>
   <v>       0.00454545 </v>
   <v>       0.00454545 </v>
   <v>       0.00454545 </v>
   <v>       0.00454545 </v>
   <v>       0.00454545 </v>
   <v>       0.00454545 </v>
   <v>       0.00454545 </v>
   <v>       0.00454545 </v>
   <v>       0.00454545 </v>
   <v>       0.00454545 </v>
   <v>       0.00454545 </v>
   <v>       0.00454545 </v>
   <v>       0.00454545 </v>
   <v>       0.00454545 </v>
   <v>       0.00454545 </v>
   <v>       0.00454545 </v>
   <v>       0.00454545 </v>
   <v>       0.00454545 </v>
   <v>       0.00454545 </v>
   <v>       0.00454545 </v>
   <v>       0.00454545 </v>
   <v>       0.00454545 </v>
   <v>       0.00454545 </v>
   <v>       0.00454545 </v>
   <v>       0.00454545 </v>
   <v>       0.00454545 </v>
   <v>       0.00454545 </v>
   <v>       0.00454545 </v>
   <v>       0.00454545 </v>
   <v>       0.00454545 </v>
   <v>       0.00454545 </v>
   <v>       0.00454545 </v>
   <v>       0.00454545 </v>
   <v>       0.00454545 </v>
   <v>       0.00454545 </v>
   <v>       0.00454545 </v>
   <v>       0.00454545 </v>
   <v>       0.00454545 </v>
   <v>       0.00454545 </v>
   <v>       0.00454545 </v>
   <v>       0.00454545 </v>
   <v>       0.00454545 </v>
   <v>       0.00454545 </v>
   <v>       0.00454545 </v>
   <v>       0.00454545 </v>
   <v>       0.00454545 </v>
   <v>       0.00454545 </v>
   <v>       0.00454545 </v>
   <v>       0.00454545 </v>
   <v>       0.00454545 </v>
   <v>       0.00454545 </v>
   <v>       0.00454545 </v>
   <v>       0.00454545 </v>
   <v>       0.00454545 </v>
   <v>       0.00454545 </v>
   <v>       0.00454545 </v>
   <v>       0.00454545 </v>
   <v>       0.00454545 </v>
   <v>       0.00454545 </v>
   <v>       0.00454545 </v>
   <v>       0.00454545 </v>
   <v>       0.00454545 </v>
   <v>       0.00454545 </v>
   <v>       0.00454545 </v>
   <v>       0.00454545 </v>
   <v>       0.00454545 </v>
   <v>       0.00454545 </v>
   <v>       0.00454545 </v>
   <v>       0.00454545 </v>
   <v>       0.00454545 </v>
   <v>       0.00454545 </v>
   <v>       0.00454545 </v>
   <v>       0.00454545 </v>
   <v>       0.00454545 </v>
   <v>       0.00454545 </v>
   <v>       0.00454545 </v>
   <v>       0.00454545 </v>
   <v>       0.00454545 </v>
   <v>       0.00454545 </v>
   <v>       0.00454545 </v>
   <v>       0.00454545 </v>
   <v>       0.00454545 </v>
   <v>       0.00454545 </v>
   <v>       0.00454545 </v>
   <v>       0.00454545 </v>
   <v>       0.00454545 </v>
   <v>       0.00454545 </v>
   <v>       0.00454545 </v>
   <v>       0.00454545 </v>
   <v>       0.00454545 </v>
   <v>       0.00454545 </v>
   <v>       0.00454545 </v>
   <v>       0.00454545 </v>
   <v>       0.00454545 </v>
   <v>       0.00454545 </v>
   <v>       0.00454545 </v>
   <v>       0.00454545 </v>
   <v>       0.00454545 </v>
   <v>       0.00454545 </v>
   <v>       0.00454545 </v>
   <v>       0.00454545 </v>
   <v>       0.00454545 </v>
   <v>       0.00454545 </v>
   <v>       0.00454545 </v>
   <v>       0.00454545 </v>
   <v>       0.00454545 </v>
   <v>       0.00454545 </v>
   <v>       0.00454545 </v>
   <v>       0.00454545 </v>
   <v>       0.00454545 </v>
   <v>       0.00454545 </v>
   <v>       0.00454545 </v>
   <v>       0.00454545 </v>
   <v>       0.00454545 </v>
   <v>       0.00454545 </v>
   <v>       0.00454545 </v>
   <v>       0.00454545 </v>
   <v>       0.00454545 </v>
   <v>       0.00454545 </v>
   <v>       0.00454545 </v>
   <v>       0.00454545 </v>
   <v>       0.00454545 </v>
   <v>       0.00454545 </v>
   <v>       0.00454545 </v>
   <v>       0.00454545 </v>
   <v>       0.00454545 </v>
   <v>       0.00454545 </v>
   <v>       0.00454545 </v>
   <v>       0.00454545 </v>
   <v>       0.00454545 </v>
   <v>       0.00454545 </v>
   <v>       0.00454545 </v>
   <v>       0.00454545 </v>
   <v>       0.00454545 </v>
   <v>       0.00454545 </v>
   <v>       0.00454545 </v>
   <v>       0.00454545 </v>
   <v>       0.00454545 </v>
   <v>       0.00454545 </v>
  </varray>
 </kpoints>
 <parameters>
  <separator name="general" >
   <i type="string" name="SYSTEM">unknown system</i>
   <i type="logical" name="LCOMPAT"> F  </i>
  </separator>
  <separator name="electronic" >
   <i type="string" name="PREC">accura</i>
   <i name="ENMAX">    500.00000000</i>
   <i name="ENAUG">    322.06900000</i>
   <i name="EDIFF">      0.00000001</i>
   <i type="int" name="IALGO">    38</i>
   <i type="int" name="IWAVPR">    10</i>
   <i type="int" name="NBANDS">    24</i>
   <i type="int" name="NBANDSLOW">    -1</i>
   <i type="int" name="NBANDSHIGH">    -1</i>
   <i name="NELECT">     32.00000000</i>
   <i type="int" name="TURBO">     0</i>
   <i type="int" name="IRESTART">     0</i>
   <i type="int" name="NREBOOT">     0</i>
   <i type="int" name="NMIN">     0</i>
   <i name="EREF">      0.00000000</i>
   <separator name="electronic smearing" >
    <i type="int" name="ISMEAR">     0</i>
    <i name="SIGMA">      0.01000000</i>
    <i name="KSPACING">      0.50000000</i>
    <i type="logical" name="KGAMMA"> T  </i>
    <i type="logical" name="KBLOWUP"> T  </i>
   </separator>
   <separator name="electronic projectors" >
    <i type="logical" name="LREAL"> F  </i>
    <v name="ROPT">      0.00000000</v>
    <i type="int" name="LMAXPAW">  -100</i>
    <i type="int" name="LMAXMIX">     2</i>
    <i type="logical" name="NLSPLINE"> F  </i>
   </separator>
   <separator name="electronic startup" >
    <i type="int" name="ISTART">     0</i>
    <i type="int" name="ICHARG">     2</i>
    <i type="int" name="INIWAV">     1</i>
   </separator>
   <separator name="electronic spin" >
    <i type="int" name="ISPIN">     1</i>
    <i type="logical" name="LNONCOLLINEAR"> F  </i>
    <v name="MAGMOM">      1.00000000      1.00000000      1.00000000      1.00000000      1.00000000      1.00000000      1.00000000      1.00000000</v>
    <i name="NUPDOWN">     -1.00000000</i>
    <i type="logical" name="LSORBIT"> F  </i>
    <v name="SAXIS">      0.00000000      0.00000000      1.00000000</v>
    <i type="logical" name="LSPIRAL"> F  </i>
    <v name="QSPIRAL">      0.00000000      0.00000000      0.00000000</v>
    <i type="logical" name="LZEROZ"> F  </i>
   </separator>
   <separator name="electronic exchange-correlation" >
    <i type="logical" name="LASPH"> F  </i>
   </separator>
   <separator name="electronic convergence" >
    <i type="int" name="NELM">    60</i>
    <i type="int" name="NELMDL">    -5</i>
    <i type="int" name="NELMIN">     2</i>
    <i name="ENINI">    500.00000000</i>
    <separator name="electronic convergence detail" >
     <i type="logical" name="LDIAG"> T  </i>
     <i type="logical" name="LSUBROT"> F  </i>
     <i name="WEIMIN">      0.00000000</i>
     <i name="EBREAK">      0.00000000</i>
     <i name="DEPER">      0.30000000</i>
     <i type="int" name="NRMM">     4</i>
     <i name="TIME">      0.40000000</i>
    </separator>
   </separator>
   <separator name="electronic mixer" >
    <i name="AMIX">      0.40000000</i>
    <i name="BMIX">      1.00000000</i>
    <i name="AMIN">      0.10000000</i>
    <i name="AMIX_MAG">      1.60000000</i>
    <i name="BMIX_MAG">      1.00000000</i>
    <separator name="electronic mixer details" >
     <i type="int" name="IMIX">     4</i>
     <i type="logical" name="MIXFIRST"> F  </i>
     <i type="int" name="MAXMIX">   -45</i>
     <i name="WC">    100.00000000</i>
     <i type="int" name="INIMIX">     1</i>
     <i type="int" name="MIXPRE">     1</i>
     <i type="int" name="MREMOVE">     5</i>
    </separator>
   </separator>
   <separator name="electronic dipolcorrection" >
    <i type="logical" name="LDIPOL"> F  </i>
    <i type="logical" name="LMONO"> F  </i>
    <i type="int" name="IDIPOL">     0</i>
    <i name="EPSILON">      1.00000000</i>
    <v name="DIPOL">   -100.00000000   -100.00000000   -100.00000000</v>
    <i name="EFIELD">      0.00000000</i>
    <i type="logical" name="LVACPOTAV"> F  </i>
   </separator>
  </separator>
  <separator name="grids" >
   <i type="int" name="NGX">    40</i>
   <i type="int" name="NGY">    56</i>
   <i type="int" name="NGZ">    28</i>
   <i type="int" name="NGXF">    80</i>
   <i type="int" name="NGYF">   112</i>
   <i type="int" name="NGZF">    56</i>
   <i type="logical" name="ADDGRID"> F  </i>
  </separator>
  <separator name="ionic" >
   <i type="int" name="NSW">     0</i>
   <i type="int" name="IBRION">    -1</i>
   <i type="int" name="MDALGO">     0</i>
   <i type="int" name="ISIF">     2</i>
   <i name="PSTRESS">      0.00000000</i>
   <i name="EDIFFG">      0.00000010</i>
   <i type="int" name="NFREE">     0</i>
   <i name="POTIM">      0.50000000</i>
   <i name="SMASS">     -3.00000000</i>
   <i name="SCALEE">      1.00000000</i>
  </separator>
  <separator name="ionic md" >
   <i name="TEBEG">      0.00010000</i>
   <i name="TEEND">      0.00010000</i>
   <i type="int" name="NBLOCK">     1</i>
   <i type="int" name="KBLOCK">     1</i>
   <i type="int" name="NPACO">   256</i>
   <i name="APACO">     10.00000000</i>
  </separator>
  <separator name="symmetry" >
   <i type="int" name="ISYM">     2</i>
   <i name="SYMPREC">      0.00001000</i>
  </separator>
  <separator name="dos" >
   <i type="int" name="LORBIT">     0</i>
   <v name="RWIGS">     -1.00000000</v>
   <i type="int" name="NEDOS">   301</i>
   <i name="EMIN">     10.00000000</i>
   <i name="EMAX">    -10.00000000</i>
   <i name="EFERMI">      0.00000000</i>
  </separator>
  <separator name="writing" >
   <i type="int" name="NWRITE">     2</i>
   <i type="logical" name="LWAVE"> F  </i>
   <i type="logical" name="LDOWNSAMPLE"> F  </i>
   <i type="logical" name="LCHARG"> F  </i>
   <i type="logical" name="LPARD"> F  </i>
   <i type="logical" name="LVTOT"> F  </i>
   <i type="logical" name="LVHAR"> F  </i>
   <i type="logical" name="LELF"> F  </i>
   <i type="logical" name="LOPTICS"> F  </i>
   <v name="STM">      0.00000000      0.00000000      0.00000000      0.00000000      0.00000000      0.00000000      0.00000000</v>
  </separator>
  <separator name="performance" >
   <i type="int" name="NPAR">     8</i>
   <i type="int" name="NSIM">     4</i>
   <i type="int" name="NBLK">    -1</i>
   <i type="logical" name="LPLANE"> T  </i>
   <i type="logical" name="LSCALAPACK"> T  </i>
   <i type="logical" name="LSCAAWARE"> F  </i>
   <i type="logical" name="LSCALU"> F  </i>
   <i type="logical" name="LASYNC"> F  </i>
   <i type="logical" name="LORBITALREAL"> F  </i>
  </separator>
  <separator name="miscellaneous" >
   <i type="int" name="IDIOT">     3</i>
   <i type="int" name="PHON_NSTRUCT">    -1</i>
   <i type="logical" name="LMUSIC"> F  </i>
   <v name="POMASS">     28.08500000</v>
   <v name="DARWINR">      0.00000000</v>
   <v name="DARWINV">      1.00000000</v>
   <i type="logical" name="LCORR"> T  </i>
  </separator>
  <i type="logical" name="GGA_COMPAT"> T  </i>
  <i type="logical" name="LBERRY"> F  </i>
  <i type="int" name="ICORELEVEL">     0</i>
  <i type="logical" name="LDAU"> F  </i>
  <i type="int" name="I_CONSTRAINED_M">     0</i>
  <separator name="electronic exchange-correlation" >
   <i type="string" name="GGA    ">PE</i>
   <i type="string" name="XC_C">1</i>
   <i type="int" name="VOSKOWN">     0</i>
   <i type="logical" name="LHFCALC"> F  </i>
   <i type="string" name="PRECFOCK"></i>
   <i type="logical" name="LSYMGRAD"> F  </i>
   <i type="logical" name="LHFONE"> F  </i>
   <i type="logical" name="LRHFCALC"> F  </i>
   <i type="logical" name="LTHOMAS"> F  </i>
   <i type="logical" name="LMODELHF"> F  </i>
   <i type="logical" name="LFOCKACE"> F  </i>
   <i name="ENCUT4O">     -1.00000000</i>
   <i type="int" name="EXXOEP">     0</i>
   <i type="int" name="FOURORBIT">     0</i>
   <i name="AEXX">      0.00000000</i>
   <i name="HFALPHA">      0.00000000</i>
   <i name="MCALPHA">      0.00000000</i>
   <i name="ALDAX">      1.00000000</i>
   <i name="AGGAX">      1.00000000</i>
   <i name="AMGGAX">      1.00000000</i>
   <i name="ALDAC">      1.00000000</i>
   <i name="AGGAC">      1.00000000</i>
   <i name="AMGGAC">      1.00000000</i>
   <i type="int" name="NKREDX">     1</i>
   <i type="int" name="NKREDY">     1</i>
   <i type="int" name="NKREDZ">     1</i>
   <i type="logical" name="SHIFTRED"> F  </i>
   <i type="logical" name="ODDONLY"> F  </i>
   <i type="logical" name="EVENONLY"> F  </i>
   <i type="int" name="LMAXFOCK">     0</i>
   <i type="int" name="NMAXFOCKAE">     0</i>
   <i type="logical" name="LFOCKAEDFT"> F  </i>
   <i name="HFSCREEN">      0.00000000</i>
   <i name="HFSCREENC">      0.00000000</i>
   <i type="int" name="NBANDSGWLOW">     0</i>
  </separator>
  <separator name="vdW DFT" >
   <i type="logical" name="LUSE_VDW"> F  </i>
   <i type="int" name="IVDW_NL">    -1</i>
   <i type="logical" name="LSPIN_VDW"> F  </i>
   <i name="ZAB_VDW">     -0.84910000</i>
   <i name="GAMMA_VDW">      1.39626340</i>
   <i name="ALPHA_VDW">      0.00000000</i>
   <i name="PARAM1">      0.12340000</i>
   <i name="PARAM2">      1.00000000</i>
   <i name="BPARAM">      6.30000000</i>
   <i name="CPARAM">      0.00930000</i>
  </separator>
  <separator name="model GW" >
   <i type="int" name="MODEL_GW">     0</i>
   <i name="MODEL_EPS0">     12.09885805</i>
   <i name="MODEL_ALPHA">      1.00000000</i>
  </separator>
  <separator name="linear response parameters" >
   <i type="logical" name="LEPSILON"> F  </i>
   <i type="logical" name="LRPA"> F  </i>
   <i type="logical" name="LNABLA"> F  </i>
   <i type="logical" name="LVEL"> F  </i>
   <i name="CSHIFT">      0.10000000</i>
   <i name="OMEGAMAX">     -1.00000000</i>
   <i name="DEG_THRESHOLD">      0.00200000</i>
   <i name="RTIME">     -0.10000000</i>
   <i name="WPLASMAI">      0.00000000</i>
   <v name="DFIELD">      0.00000000      0.00000000      0.00000000</v>
   <v name="WPLASMA">      0.00000000      0.00000000      0.00000000      0.00000000      0.00000000      0.00000000      0.00000000      0.00000000      0.00000000</v>
  </separator>
  <separator name="orbital magnetization" >
   <i type="logical" name="NUCIND"> F  </i>
   <v name="MAGPOS">      0.00000000      0.00000000      0.00000000</v>
   <i type="logical" name="LNICSALL"> T  </i>
   <i type="logical" name="ORBITALMAG"> F  </i>
   <i type="logical" name="LMAGBLOCH"> F  </i>
   <i type="logical" name="LCHIMAG"> F  </i>
   <i type="logical" name="LGAUGE"> T  </i>
   <i type="int" name="MAGATOM">     0</i>
   <v name="MAGDIPOL">      0.00000000      0.00000000      0.00000000</v>
   <v name="AVECCONST">      0.00000000      0.00000000      0.00000000</v>
  </separator>
  <separator name="response functions" >
   <i type="logical" name="LALL_IN_ONE"> F  </i>
   <i type="int" name="IALL_IN_ONE">    -1</i>
   <i type="int" name="NBANDS_WAVE">    -1</i>
   <i type="logical" name="LFINITE_TEMPERATURE"> F  </i>
   <i type="logical" name="LADDER"> F  </i>
   <i type="logical" name="LRPAFORCE"> F  </i>
   <i type="logical" name="LFXC"> F  </i>
   <i type="logical" name="LHARTREE"> T  </i>
   <i type="int" name="IBSE">     0</i>
   <v type="int" name="KPOINT">    -1     0     0     0</v>
   <i type="logical" name="LTCTC"> F  </i>
   <i type="logical" name="LTCTE"> F  </i>
   <i type="logical" name="LTETE"> F  </i>
   <i type="logical" name="LTRIPLET"> F  </i>
   <i type="logical" name="LFXCEPS"> F  </i>
   <i type="logical" name="LFXHEG"> F  </i>
   <i type="int" name="NATURALO">     2</i>
   <i type="logical" name="LHOLEGF"> F  </i>
   <i type="logical" name="L2ORDER"> F  </i>
   <i type="logical" name="LDMP1"> F  </i>
   <i type="logical" name="LMP2LT"> F  </i>
   <i type="logical" name="LSMP2LT"> F  </i>
   <i type="logical" name="LGWLF"> F  </i>
   <i name="ENCUTGW">     -1.60000002</i>
   <i name="ENCUTGWSOFT">     -1.60000002</i>
   <i name="ENCUTLF">     -1.00000000</i>
   <i type="logical" name="ESF_SPLINES"> F  </i>
   <i name="ESF_CONV">      0.01000000</i>
   <i type="int" name="ESF_NINTER">    15</i>
   <i type="int" name="LMAXMP2">    -1</i>
   <i name="SCISSOR">      0.00000000</i>
   <i type="int" name="NOMEGA">     0</i>
   <i type="int" name="NOMEGAR">     0</i>
   <i type="int" name="NBANDSGW">    -1</i>
   <i type="int" name="NBANDSO">    -1</i>
   <i type="int" name="NBANDSV">    -1</i>
   <i type="int" name="NELMGW">     1</i>
   <i type="int" name="NELMHF">     1</i>
   <i type="int" name="DIM">     3</i>
   <i type="int" name="IESPILON">     4</i>
   <i type="int" name="ANTIRES">     0</i>
   <i name="OMEGAMAX">    -30.00000000</i>
   <i name="OMEGAMIN">    -30.00000000</i>
   <i name="OMEGATL">   -200.00000000</i>
   <i type="int" name="OMEGAGRID">     0</i>
   <i name="CSHIFT">     -0.10000000</i>
   <i type="logical" name="LSELFENERGY"> F  </i>
   <i type="logical" name="LSPECTRAL"> F  </i>
   <i type="logical" name="LSPECTRALGW"> F  </i>
   <i type="logical" name="LSINGLES"> F  </i>
   <i type="logical" name="LFERMIGW"> F  </i>
   <i type="logical" name="ODDONLYGW"> F  </i>
   <i type="logical" name="EVENONLYGW"> F  </i>
   <i type="int" name="NKREDLFX">     1</i>
   <i type="int" name="NKREDLFY">     1</i>
   <i type="int" name="NKREDLFZ">     1</i>
   <i type="int" name="MAXMEM">  2800</i>
   <i type="int" name="TELESCOPE">     0</i>
   <i type="int" name="NTAUPAR">    -1</i>
   <i type="int" name="NOMEGAPAR">    -1</i>
   <i name="DAMP_NEWTON">      0.80000001</i>
   <i name="LAMBDA">      1.00000000</i>
  </separator>
  <separator name="External order field" >
   <i name="OFIELD_KAPPA">      0.00000000</i>
   <v name="OFIELD_K">      0.00000000      0.00000000      0.00000000</v>
   <i name="OFIELD_Q6_NEAR">      0.00000000</i>
   <i name="OFIELD_Q6_FAR">      0.00000000</i>
   <i name="OFIELD_A">      0.00000000</i>
  </separator>
  <separator name="optional k-points parameters" >
   <i type="int" name="KPOINTS_OPT_MODE">     1</i>
   <i type="logical" name="LKPOINTS_OPT"> F  </i>
  </separator>
 </parameters>
 <atominfo>
  <atoms>       8 </atoms>
  <types>       1 </types>
  <array name="atoms" >
   <dimension dim="1">ion</dimension>
   <field type="string">element</field>
   <field type="int">atomtype</field>
   <set>
    <rc><c>Si</c><c>   1</c></rc>
    <rc><c>Si</c><c>   1</c></rc>
    <rc><c>Si</c><c>   1</c></rc>
    <rc><c>Si</c><c>   1</c></rc>
    <rc><c>Si</c><c>   1</c></rc>
    <rc><c>Si</c><c>   1</c></rc>
    <rc><c>Si</c><c>   1</c></rc>
    <rc><c>Si</c><c>   1</c></rc>
   </set>
  </array>
  <array name="atomtypes" >
   <dimension dim="1">type</dimension>
   <field type="int">atomspertype</field>
   <field type="string">element</field>
   <field>mass</field>
   <field>valence</field>
   <field type="string">pseudopotential</field>
   <set>
    <rc><c>   8</c><c>Si</c><c>     28.08500000</c><c>      4.00000000</c><c>  PAW_PBE Si 05Jan2001                  </c></rc>
   </set>
  </array>
 </atominfo>
 <structure name="initialpos" >
  <crystal>
   <varray name="basis" >
    <v>      -0.00000000      -0.00000000       5.44370237 </v>
    <v>       5.44370237      -5.44370237       0.00000000 </v>
    <v>       2.72185119       2.72185119       0.00000000 </v>
   </varray>
   <i name="volume">    161.31810740 </i>
   <varray name="rec_basis" >
    <v>      -0.00000000       0.00000000       0.18369851 </v>
    <v>       0.09184925      -0.09184925      -0.00000000 </v>
    <v>       0.18369851       0.18369851       0.00000000 </v>
   </varray>
  </crystal>
  <varray name="positions" >
   <v>       0.99901809       0.99901809       0.99901809 </v>
   <v>       0.50000000       0.75000000       0.50000000 </v>
   <v>       0.00000000       0.50000000       0.00000000 </v>
   <v>       0.50000000       0.25000000       0.50000000 </v>
   <v>       0.25000000       0.00000000       0.50000000 </v>
   <v>       0.75000000       0.75000000       0.00000000 </v>
   <v>       0.25000000       0.50000000       0.50000000 </v>
   <v>       0.75000000       0.25000000       0.00000000 </v>
  </varray>
 </structure>
 <calculation>
  <scstep>
   <time name="dav">    1.11    1.11</time>
   <time name="total">    1.13    1.13</time>
   <energy>
    <i name="alphaZ">     13.35522965 </i>
    <i name="ewald">   -911.95050276 </i>
    <i name="hartreedc">    -44.46064638 </i>
    <i name="XCdc">    -74.52612447 </i>
    <i name="pawpsdc">    704.99039692 </i>
    <i name="pawaedc">   -564.24414232 </i>
    <i name="eentropy">     -0.00015404 </i>
    <i name="bandstr">    120.04134090 </i>
    <i name="atom">    824.53005375 </i>
    <i name="e_fr_energy">     67.73545125 </i>
    <i name="e_wo_entrp">     67.73560530 </i>
    <i name="e_0_energy">     67.73552828 </i>
   </energy>
  </scstep>
  <scstep>
   <time name="dav">    1.31    1.32</time>
   <time name="total">    1.31    1.32</time>
   <energy>
    <i name="e_fr_energy">    -38.83493726 </i>
    <i name="e_wo_entrp">    -38.83490368 </i>
    <i name="e_0_energy">    -38.83492047 </i>
   </energy>
  </scstep>
  <scstep>
   <time name="dav">    1.34    1.34</time>
   <time name="total">    1.34    1.34</time>
   <energy>
    <i name="e_fr_energy">    -43.99886125 </i>
    <i name="e_wo_entrp">    -43.99886125 </i>
    <i name="e_0_energy">    -43.99886125 </i>
   </energy>
  </scstep>
  <scstep>
   <time name="dav">    1.28    1.29</time>
   <time name="total">    1.28    1.29</time>
   <energy>
    <i name="e_fr_energy">    -44.09079289 </i>
    <i name="e_wo_entrp">    -44.09079289 </i>
    <i name="e_0_energy">    -44.09079289 </i>
   </energy>
  </scstep>
  <scstep>
   <time name="dav">    1.33    1.34</time>
   <time name="total">    1.37    1.38</time>
   <energy>
    <i name="e_fr_energy">    -44.09313304 </i>
    <i name="e_wo_entrp">    -44.09313304 </i>
    <i name="e_0_energy">    -44.09313304 </i>
   </energy>
  </scstep>
  <scstep>
   <time name="dav">    1.24    1.24</time>
   <time name="total">    1.30    1.30</time>
   <energy>
    <i name="e_fr_energy">    -43.60645823 </i>
    <i name="e_wo_entrp">    -43.60645823 </i>
    <i name="e_0_energy">    -43.60645823 </i>
   </energy>
  </scstep>
  <scstep>
   <time name="dav">    1.22    1.22</time>
   <time name="total">    1.28    1.28</time>
   <energy>
    <i name="e_fr_energy">    -43.38480266 </i>
    <i name="e_wo_entrp">    -43.38480266 </i>
    <i name="e_0_energy">    -43.38480266 </i>
   </energy>
  </scstep>
  <scstep>
   <time name="dav">    1.26    1.26</time>
   <time name="total">    1.32    1.32</time>
   <energy>
    <i name="e_fr_energy">    -43.38850656 </i>
    <i name="e_wo_entrp">    -43.38850656 </i>
    <i name="e_0_energy">    -43.38850656 </i>
   </energy>
  </scstep>
  <scstep>
   <time name="dav">    1.30    1.30</time>
   <time name="total">    1.36    1.36</time>
   <energy>
    <i name="e_fr_energy">    -43.38936834 </i>
    <i name="e_wo_entrp">    -43.38936834 </i>
    <i name="e_0_energy">    -43.38936834 </i>
   </energy>
  </scstep>
  <scstep>
   <time name="dav">    1.24    1.24</time>
   <time name="total">    1.29    1.30</time>
   <energy>
    <i name="e_fr_energy">    -43.38960280 </i>
    <i name="e_wo_entrp">    -43.38960280 </i>
    <i name="e_0_energy">    -43.38960280 </i>
   </energy>
  </scstep>
  <scstep>
   <time name="dav">    1.30    1.30</time>
   <time name="total">    1.36    1.36</time>
   <energy>
    <i name="e_fr_energy">    -43.38960115 </i>
    <i name="e_wo_entrp">    -43.38960115 </i>
    <i name="e_0_energy">    -43.38960115 </i>
   </energy>
  </scstep>
  <scstep>
   <time name="dav">    1.27    1.27</time>
   <time name="total">    1.33    1.33</time>
   <energy>
    <i name="e_fr_energy">    -43.38960245 </i>
    <i name="e_wo_entrp">    -43.38960245 </i>
    <i name="e_0_energy">    -43.38960245 </i>
   </energy>
  </scstep>
  <scstep>
   <time name="dav">    1.29    1.29</time>
   <time name="total">    1.35    1.35</time>
   <energy>
    <i name="e_fr_energy">    -43.38960229 </i>
    <i name="e_wo_entrp">    -43.38960229 </i>
    <i name="e_0_energy">    -43.38960229 </i>
   </energy>
  </scstep>
  <scstep>
   <time name="dav">    1.15    1.16</time>
   <time name="total">    1.21    1.22</time>
   <energy>
    <i name="e_fr_energy">    -43.38960232 </i>
    <i name="e_wo_entrp">    -43.38960232 </i>
    <i name="e_0_energy">    -43.38960232 </i>
   </energy>
  </scstep>
  <scstep>
   <time name="dav">    1.02    1.02</time>
   <time name="total">    1.08    1.08</time>
   <energy>
    <i name="e_fr_energy">    -43.38960230 </i>
    <i name="e_wo_entrp">    -43.38960230 </i>
    <i name="e_0_energy">    -43.38960230 </i>
   </energy>
  </scstep>
  <scstep>
   <time name="dav">    0.97    0.97</time>
   <time name="total">    0.98    0.99</time>
   <energy>
    <i name="alphaZ">     13.35522965 </i>
    <i name="ewald">   -911.95050276 </i>
    <i name="hartreedc">    -60.02997581 </i>
    <i name="XCdc">    -71.99012671 </i>
    <i name="pawpsdc">   3421.51102953 </i>
    <i name="pawaedc">  -3281.63430376 </i>
    <i name="eentropy">     -0.00000000 </i>
    <i name="bandstr">     22.81899381 </i>
    <i name="atom">    824.53005375 </i>
    <i name="e_fr_energy">    -43.38960230 </i>
    <i name="e_wo_entrp">    -43.38960230 </i>
    <i name="e_0_energy">    -43.38960230 </i>
   </energy>
  </scstep>
  <structure>
   <crystal>
    <varray name="basis" >
     <v>      -0.00000000      -0.00000000       5.44370237 </v>
     <v>       5.44370237      -5.44370237       0.00000000 </v>
     <v>       2.72185119       2.72185119       0.00000000 </v>
    </varray>
    <i name="volume">    161.31810740 </i>
    <varray name="rec_basis" >
     <v>      -0.00000000       0.00000000       0.18369851 </v>
     <v>       0.09184925      -0.09184925      -0.00000000 </v>
     <v>       0.18369851       0.18369851       0.00000000 </v>
    </varray>
   </crystal>
   <varray name="positions" >
    <v>       0.99901809       0.99901809       0.99901809 </v>
    <v>       0.50000000       0.75000000       0.50000000 </v>
    <v>       0.00000000       0.50000000       0.00000000 </v>
    <v>       0.50000000       0.25000000       0.50000000 </v>
    <v>       0.25000000       0.00000000       0.50000000 </v>
    <v>       0.75000000       0.75000000       0.00000000 </v>
    <v>       0.25000000       0.50000000       0.50000000 </v>
    <v>       0.75000000       0.25000000       0.00000000 </v>
   </varray>
  </structure>
  <varray name="forces" >
   <v>       0.10298731      -0.03741533       0.07773971 </v>
   <v>       0.00233162      -0.00017935      -0.00322700 </v>
   <v>      -0.00168434       0.00239850       0.00403870 </v>
   <v>       0.00419155      -0.00201241      -0.00684933 </v>
   <v>      -0.03831110      -0.01945818      -0.03607462 </v>
   <v>      -0.04566655       0.04082963      -0.04185737 </v>
   <v>      -0.00217614      -0.00083435       0.00073041 </v>
   <v>      -0.02167234       0.01667149       0.00549950 </v>
  </varray>
  <varray name="stress" >
   <v>      12.55667562      -0.53097858       0.26487612 </v>
   <v>      -0.53097865      12.56658062      -0.76902466 </v>
   <v>       0.26487610      -0.76902464      12.47636316 </v>
  </varray>
  <energy>
   <i name="e_fr_energy">    -43.38960230 </i>
   <i name="e_wo_entrp">    -43.38960230 </i>
   <i name="e_0_energy">    -43.38960230 </i>
  </energy>
  <time name="totalsc">   21.13   21.21</time>
  <eigenvalues>
   <array>
    <dimension dim="1">band</dimension>
    <dimension dim="2">kpoint</dimension>
    <dimension dim="3">spin</dimension>
    <field>eigene</field>
    <field>occ</field>
    <set>
     <set comment="spin 1">
      <set comment="kpoint 1">
       <r>   -6.1548    1.0000 </r>
       <r>   -4.1291    1.0000 </r>
       <r>   -4.1183    1.0000 </r>
       <r>   -2.0409    1.0000 </r>
       <r>   -2.0323    1.0000 </r>
       <r>    0.2779    1.0000 </r>
       <r>    0.2928    1.0000 </r>
       <r>    2.0291    1.0000 </r>
       <r>    2.0353    1.0000 </r>
       <r>    2.9212    1.0000 </r>
       <r>    2.9257    1.0000 </r>
       <r>    4.4335    1.0000 </r>
       <r>    4.4455    1.0000 </r>
       <r>    5.7402    1.0000 </r>
       <r>    5.7563    1.0000 </r>
       <r>    5.7637    1.0000 </r>
       <r>    6.4752    0.0000 </r>
       <r>    6.4817    0.0000 </r>
       <r>    8.1995    0.0000 </r>
       <r>    8.2086    0.0000 </r>
       <r>    8.3101    0.0000 </r>
       <r>    8.3146    0.0000 </r>
       <r>    8.3243    0.0000 </r>
       <r>    9.0445    0.0000 </r>
      </set>
      <set comment="kpoint 2">
       <r>   -6.0869    1.0000 </r>
       <r>   -4.0938    1.0000 </r>
       <r>   -4.0830    1.0000 </r>
       <r>   -2.9543    1.0000 </r>
       <r>   -1.0380    1.0000 </r>
       <r>   -0.0536    1.0000 </r>
       <r>   -0.0388    1.0000 </r>
       <r>    2.4599    1.0000 </r>
       <r>    2.4694    1.0000 </r>
       <r>    2.9824    1.0000 </r>
       <r>    2.9870    1.0000 </r>
       <r>    4.4511    1.0000 </r>
       <r>    4.4630    1.0000 </r>
       <r>    5.3293    1.0000 </r>
       <r>    5.4885    1.0000 </r>
       <r>    5.4991    1.0000 </r>
       <r>    6.3452    0.0000 </r>
       <r>    6.7954    0.0000 </r>
       <r>    8.1555    0.0000 </r>
       <r>    8.2053    0.0000 </r>
       <r>    8.2145    0.0000 </r>
       <r>    8.6569    0.0000 </r>
       <r>    8.6626    0.0000 </r>
       <r>    9.4489    0.0000 </r>
      </set>
      <set comment="kpoint 3">
       <r>   -5.8836    1.0000 </r>
       <r>   -4.0010    1.0000 </r>
       <r>   -3.9906    1.0000 </r>
       <r>   -3.7751    1.0000 </r>
       <r>   -0.6041    1.0000 </r>
       <r>   -0.5897    1.0000 </r>
       <r>    0.0220    1.0000 </r>
       <r>    3.1649    1.0000 </r>
       <r>    3.1698    1.0000 </r>
       <r>    3.3010    1.0000 </r>
       <r>    3.3120    1.0000 </r>
       <r>    4.4145    1.0000 </r>
       <r>    4.4951    1.0000 </r>
       <r>    4.5070    1.0000 </r>
       <r>    4.9504    1.0000 </r>
       <r>    4.9587    1.0000 </r>
       <r>    6.3817    0.0000 </r>
       <r>    7.3064    0.0000 </r>
       <r>    7.7680    0.0000 </r>
       <r>    8.0984    0.0000 </r>
       <r>    8.1048    0.0000 </r>
       <r>    9.3724    0.0000 </r>
       <r>    9.3767    0.0000 </r>
       <r>    9.4484    0.0000 </r>
      </set>
      <set comment="kpoint 4">
       <r>   -5.5468    1.0000 </r>
       <r>   -4.4868    1.0000 </r>
       <r>   -3.8944    1.0000 </r>
       <r>   -3.8845    1.0000 </r>
       <r>   -1.0288    1.0000 </r>
       <r>   -1.0148    1.0000 </r>
       <r>    1.1214    1.0000 </r>
       <r>    3.3480    1.0000 </r>
       <r>    3.4657    1.0000 </r>
       <r>    3.4707    1.0000 </r>
       <r>    4.1404    1.0000 </r>
       <r>    4.1515    1.0000 </r>
       <r>    4.3828    1.0000 </r>
       <r>    4.3890    1.0000 </r>
       <r>    4.5414    1.0000 </r>
       <r>    4.5534    1.0000 </r>
       <r>    6.5714    0.0000 </r>
       <r>    7.3107    0.0000 </r>
       <r>    7.6157    0.0000 </r>
       <r>    7.6222    0.0000 </r>
       <r>    8.0130    0.0000 </r>
       <r>    9.1052    0.0000 </r>
       <r>    9.1107    0.0000 </r>
       <r>    9.2261    0.0000 </r>
      </set>
      <set comment="kpoint 5">
       <r>   -5.0841    1.0000 </r>
       <r>   -5.0749    1.0000 </r>
       <r>   -3.8449    1.0000 </r>
       <r>   -3.8354    1.0000 </r>
       <r>   -1.1887    1.0000 </r>
       <r>   -1.1749    1.0000 </r>
       <r>    2.2363    1.0000 </r>
       <r>    2.2396    1.0000 </r>
       <r>    3.8709    1.0000 </r>
       <r>    3.8766    1.0000 </r>
       <r>    3.8820    1.0000 </r>
       <r>    3.8877    1.0000 </r>
       <r>    4.5546    1.0000 </r>
       <r>    4.5609    1.0000 </r>
       <r>    4.5647    1.0000 </r>
       <r>    4.5747    1.0000 </r>
       <r>    6.8899    0.0000 </r>
       <r>    6.8945    0.0000 </r>
       <r>    7.2677    0.0000 </r>
       <r>    7.2715    0.0000 </r>
       <r>    8.8865    0.0000 </r>
       <r>    8.8907    0.0000 </r>
       <r>    9.0880    0.0000 </r>
       <r>    9.1009    0.0000 </r>
      </set>
      <set comment="kpoint 6">
       <r>   -6.0679    1.0000 </r>
       <r>   -4.8141    1.0000 </r>
       <r>   -3.3792    1.0000 </r>
       <r>   -2.0743    1.0000 </r>
       <r>   -1.9467    1.0000 </r>
       <r>   -0.5446    1.0000 </r>
       <r>    1.2858    1.0000 </r>
       <r>    1.5238    1.0000 </r>
       <r>    2.4455    1.0000 </r>
       <r>    2.7787    1.0000 </r>
       <r>    2.9952    1.0000 </r>
       <r>    3.9551    1.0000 </r>
       <r>    4.9184    1.0000 </r>
       <r>    5.0096    1.0000 </r>
       <r>    5.4059    1.0000 </r>
       <r>    5.7202    1.0000 </r>
       <r>    6.5619    0.0000 </r>
       <r>    7.2444    0.0000 </r>
       <r>    7.6699    0.0000 </r>
       <r>    8.4017    0.0000 </r>
       <r>    8.4814    0.0000 </r>
       <r>    8.5446    0.0000 </r>
       <r>    8.6377    0.0000 </r>
       <r>    9.6743    0.0000 </r>
      </set>
      <set comment="kpoint 7">
       <r>   -6.0003    1.0000 </r>
       <r>   -4.7596    1.0000 </r>
       <r>   -3.4020    1.0000 </r>
       <r>   -2.9078    1.0000 </r>
       <r>   -1.0469    1.0000 </r>
       <r>   -0.7445    1.0000 </r>
       <r>    0.8845    1.0000 </r>
       <r>    1.8929    1.0000 </r>
       <r>    2.5255    1.0000 </r>
       <r>    3.0557    1.0000 </r>
       <r>    3.2401    1.0000 </r>
       <r>    3.9948    1.0000 </r>
       <r>    4.4512    1.0000 </r>
       <r>    4.8948    1.0000 </r>
       <r>    5.4827    1.0000 </r>
       <r>    5.5644    1.0000 </r>
       <r>    6.6007    0.0000 </r>
       <r>    7.3832    0.0000 </r>
       <r>    7.7305    0.0000 </r>
       <r>    8.3054    0.0000 </r>
       <r>    8.4602    0.0000 </r>
       <r>    8.5894    0.0000 </r>
       <r>    8.7078    0.0000 </r>
       <r>    9.5420    0.0000 </r>
      </set>
      <set comment="kpoint 8">
       <r>   -6.0005    1.0000 </r>
       <r>   -4.7586    1.0000 </r>
       <r>   -3.4052    1.0000 </r>
       <r>   -2.9060    1.0000 </r>
       <r>   -1.0505    1.0000 </r>
       <r>   -0.7355    1.0000 </r>
       <r>    0.8776    1.0000 </r>
       <r>    1.8866    1.0000 </r>
       <r>    2.5281    1.0000 </r>
       <r>    3.0556    1.0000 </r>
       <r>    3.2467    1.0000 </r>
       <r>    3.9957    1.0000 </r>
       <r>    4.4633    1.0000 </r>
       <r>    4.8931    1.0000 </r>
       <r>    5.4836    1.0000 </r>
       <r>    5.5489    1.0000 </r>
       <r>    6.5999    0.0000 </r>
       <r>    7.3833    0.0000 </r>
       <r>    7.7308    0.0000 </r>
       <r>    8.2983    0.0000 </r>
       <r>    8.4618    0.0000 </r>
       <r>    8.5979    0.0000 </r>
       <r>    8.7050    0.0000 </r>
       <r>    9.5506    0.0000 </r>
      </set>
      <set comment="kpoint 9">
       <r>   -5.7983    1.0000 </r>
       <r>   -4.5992    1.0000 </r>
       <r>   -3.7129    1.0000 </r>
       <r>   -3.5035    1.0000 </r>
       <r>   -1.0208    1.0000 </r>
       <r>   -0.0524    1.0000 </r>
       <r>    0.2197    1.0000 </r>
       <r>    2.6949    1.0000 </r>
       <r>    2.7704    1.0000 </r>
       <r>    3.2361    1.0000 </r>
       <r>    3.6387    1.0000 </r>
       <r>    4.0356    1.0000 </r>
       <r>    4.1095    1.0000 </r>
       <r>    4.8158    1.0000 </r>
       <r>    4.9758    1.0000 </r>
       <r>    5.1886    1.0000 </r>
       <r>    6.7327    0.0000 </r>
       <r>    7.7801    0.0000 </r>
       <r>    7.8807    0.0000 </r>
       <r>    7.8913    0.0000 </r>
       <r>    8.1567    0.0000 </r>
       <r>    8.8476    0.0000 </r>
       <r>    9.2588    0.0000 </r>
       <r>    9.3676    0.0000 </r>
      </set>
      <set comment="kpoint 10">
       <r>   -5.7986    1.0000 </r>
       <r>   -4.5973    1.0000 </r>
       <r>   -3.7115    1.0000 </r>
       <r>   -3.5091    1.0000 </r>
       <r>   -1.0080    1.0000 </r>
       <r>   -0.0579    1.0000 </r>
       <r>    0.2110    1.0000 </r>
       <r>    2.6868    1.0000 </r>
       <r>    2.7756    1.0000 </r>
       <r>    3.2358    1.0000 </r>
       <r>    3.6508    1.0000 </r>
       <r>    4.0439    1.0000 </r>
       <r>    4.1112    1.0000 </r>
       <r>    4.8129    1.0000 </r>
       <r>    4.9768    1.0000 </r>
       <r>    5.1726    1.0000 </r>
       <r>    6.7315    0.0000 </r>
       <r>    7.7801    0.0000 </r>
       <r>    7.8807    0.0000 </r>
       <r>    7.8951    0.0000 </r>
       <r>    8.1550    0.0000 </r>
       <r>    8.8509    0.0000 </r>
       <r>    9.2710    0.0000 </r>
       <r>    9.3681    0.0000 </r>
      </set>
      <set comment="kpoint 11">
       <r>   -5.4638    1.0000 </r>
       <r>   -4.4146    1.0000 </r>
       <r>   -4.3479    1.0000 </r>
       <r>   -3.7255    1.0000 </r>
       <r>   -1.0693    1.0000 </r>
       <r>   -0.3803    1.0000 </r>
       <r>    0.9403    1.0000 </r>
       <r>    2.7822    1.0000 </r>
       <r>    3.1840    1.0000 </r>
       <r>    3.5320    1.0000 </r>
       <r>    3.6133    1.0000 </r>
       <r>    4.2819    1.0000 </r>
       <r>    4.4282    1.0000 </r>
       <r>    4.4850    1.0000 </r>
       <r>    4.5964    1.0000 </r>
       <r>    4.6756    1.0000 </r>
       <r>    6.9747    0.0000 </r>
       <r>    7.3801    0.0000 </r>
       <r>    7.7380    0.0000 </r>
       <r>    7.9348    0.0000 </r>
       <r>    8.4048    0.0000 </r>
       <r>    9.1500    0.0000 </r>
       <r>    9.1538    0.0000 </r>
       <r>    9.2130    0.0000 </r>
      </set>
      <set comment="kpoint 12">
       <r>   -5.4643    1.0000 </r>
       <r>   -4.4141    1.0000 </r>
       <r>   -4.3442    1.0000 </r>
       <r>   -3.7314    1.0000 </r>
       <r>   -1.0561    1.0000 </r>
       <r>   -0.3907    1.0000 </r>
       <r>    0.9327    1.0000 </r>
       <r>    2.7938    1.0000 </r>
       <r>    3.1927    1.0000 </r>
       <r>    3.5315    1.0000 </r>
       <r>    3.6040    1.0000 </r>
       <r>    4.2844    1.0000 </r>
       <r>    4.4294    1.0000 </r>
       <r>    4.4706    1.0000 </r>
       <r>    4.6062    1.0000 </r>
       <r>    4.6719    1.0000 </r>
       <r>    6.9733    0.0000 </r>
       <r>    7.3840    0.0000 </r>
       <r>    7.7386    0.0000 </r>
       <r>    7.9327    0.0000 </r>
       <r>    8.4039    0.0000 </r>
       <r>    9.1497    0.0000 </r>
       <r>    9.1667    0.0000 </r>
       <r>    9.2102    0.0000 </r>
      </set>
      <set comment="kpoint 13">
       <r>   -5.0053    1.0000 </r>
       <r>   -4.9961    1.0000 </r>
       <r>   -4.0406    1.0000 </r>
       <r>   -4.0312    1.0000 </r>
       <r>   -0.8404    1.0000 </r>
       <r>   -0.8271    1.0000 </r>
       <r>    1.8841    1.0000 </r>
       <r>    1.8945    1.0000 </r>
       <r>    3.7630    1.0000 </r>
       <r>    3.7772    1.0000 </r>
       <r>    3.9295    1.0000 </r>
       <r>    3.9405    1.0000 </r>
       <r>    4.3917    1.0000 </r>
       <r>    4.4016    1.0000 </r>
       <r>    4.4787    1.0000 </r>
       <r>    4.4905    1.0000 </r>
       <r>    7.3169    0.0000 </r>
       <r>    7.3221    0.0000 </r>
       <r>    7.5363    0.0000 </r>
       <r>    7.5404    0.0000 </r>
       <r>    9.0344    0.0000 </r>
       <r>    9.0412    0.0000 </r>
       <r>    9.2027    0.0000 </r>
       <r>    9.2078    0.0000 </r>
      </set>
      <set comment="kpoint 14">
       <r>   -5.8094    1.0000 </r>
       <r>   -5.3862    1.0000 </r>
       <r>   -2.7053    1.0000 </r>
       <r>   -2.2610    1.0000 </r>
       <r>   -1.6646    1.0000 </r>
       <r>   -1.1961    1.0000 </r>
       <r>    1.3791    1.0000 </r>
       <r>    1.7223    1.0000 </r>
       <r>    2.4422    1.0000 </r>
       <r>    3.2000    1.0000 </r>
       <r>    3.5281    1.0000 </r>
       <r>    3.6701    1.0000 </r>
       <r>    3.7215    1.0000 </r>
       <r>    4.6049    1.0000 </r>
       <r>    5.3167    1.0000 </r>
       <r>    5.5836    1.0000 </r>
       <r>    6.7987    0.0000 </r>
       <r>    7.1785    0.0000 </r>
       <r>    8.6694    0.0000 </r>
       <r>    8.7165    0.0000 </r>
       <r>    8.7964    0.0000 </r>
       <r>    8.8617    0.0000 </r>
       <r>    8.9022    0.0000 </r>
       <r>    9.1150    0.0000 </r>
      </set>
      <set comment="kpoint 15">
       <r>   -5.7432    1.0000 </r>
       <r>   -5.3238    1.0000 </r>
       <r>   -2.9137    1.0000 </r>
       <r>   -2.8214    1.0000 </r>
       <r>   -1.1031    1.0000 </r>
       <r>   -1.0951    1.0000 </r>
       <r>    1.6421    1.0000 </r>
       <r>    1.8664    1.0000 </r>
       <r>    1.9884    1.0000 </r>
       <r>    3.2085    1.0000 </r>
       <r>    3.2579    1.0000 </r>
       <r>    3.5797    1.0000 </r>
       <r>    4.1280    1.0000 </r>
       <r>    4.9982    1.0000 </r>
       <r>    5.2260    1.0000 </r>
       <r>    5.4105    1.0000 </r>
       <r>    6.8771    0.0000 </r>
       <r>    7.2563    0.0000 </r>
       <r>    8.1740    0.0000 </r>
       <r>    8.3222    0.0000 </r>
       <r>    8.8591    0.0000 </r>
       <r>    8.9904    0.0000 </r>
       <r>    9.1190    0.0000 </r>
       <r>    9.1409    0.0000 </r>
      </set>
      <set comment="kpoint 16">
       <r>   -5.7435    1.0000 </r>
       <r>   -5.3233    1.0000 </r>
       <r>   -2.9186    1.0000 </r>
       <r>   -2.8175    1.0000 </r>
       <r>   -1.1067    1.0000 </r>
       <r>   -1.0891    1.0000 </r>
       <r>    1.6359    1.0000 </r>
       <r>    1.8712    1.0000 </r>
       <r>    1.9813    1.0000 </r>
       <r>    3.2172    1.0000 </r>
       <r>    3.2576    1.0000 </r>
       <r>    3.5802    1.0000 </r>
       <r>    4.1357    1.0000 </r>
       <r>    4.9879    1.0000 </r>
       <r>    5.2241    1.0000 </r>
       <r>    5.4122    1.0000 </r>
       <r>    6.8766    0.0000 </r>
       <r>    7.2567    0.0000 </r>
       <r>    8.1686    0.0000 </r>
       <r>    8.3264    0.0000 </r>
       <r>    8.8536    0.0000 </r>
       <r>    8.9905    0.0000 </r>
       <r>    9.1266    0.0000 </r>
       <r>    9.1450    0.0000 </r>
      </set>
      <set comment="kpoint 17">
       <r>   -5.5457    1.0000 </r>
       <r>   -5.1377    1.0000 </r>
       <r>   -3.5487    1.0000 </r>
       <r>   -3.3873    1.0000 </r>
       <r>   -0.8522    1.0000 </r>
       <r>   -0.3603    1.0000 </r>
       <r>    1.2640    1.0000 </r>
       <r>    2.2975    1.0000 </r>
       <r>    2.3113    1.0000 </r>
       <r>    2.4403    1.0000 </r>
       <r>    3.4294    1.0000 </r>
       <r>    3.7318    1.0000 </r>
       <r>    4.7333    1.0000 </r>
       <r>    4.9782    1.0000 </r>
       <r>    5.0054    1.0000 </r>
       <r>    5.1632    1.0000 </r>
       <r>    7.1047    0.0000 </r>
       <r>    7.4798    0.0000 </r>
       <r>    7.7028    0.0000 </r>
       <r>    7.9492    0.0000 </r>
       <r>    9.0403    0.0000 </r>
       <r>    9.2018    0.0000 </r>
       <r>    9.2607    0.0000 </r>
       <r>    9.3181    0.0000 </r>
      </set>
      <set comment="kpoint 18">
       <r>   -5.5464    1.0000 </r>
       <r>   -5.1366    1.0000 </r>
       <r>   -3.5457    1.0000 </r>
       <r>   -3.3925    1.0000 </r>
       <r>   -0.8392    1.0000 </r>
       <r>   -0.3707    1.0000 </r>
       <r>    1.2554    1.0000 </r>
       <r>    2.2994    1.0000 </r>
       <r>    2.3093    1.0000 </r>
       <r>    2.4497    1.0000 </r>
       <r>    3.4287    1.0000 </r>
       <r>    3.7329    1.0000 </r>
       <r>    4.7433    1.0000 </r>
       <r>    4.9756    1.0000 </r>
       <r>    5.0072    1.0000 </r>
       <r>    5.1503    1.0000 </r>
       <r>    7.1039    0.0000 </r>
       <r>    7.4804    0.0000 </r>
       <r>    7.7072    0.0000 </r>
       <r>    7.9440    0.0000 </r>
       <r>    9.0457    0.0000 </r>
       <r>    9.2134    0.0000 </r>
       <r>    9.2604    0.0000 </r>
       <r>    9.3090    0.0000 </r>
      </set>
      <set comment="kpoint 19">
       <r>   -5.2199    1.0000 </r>
       <r>   -4.8335    1.0000 </r>
       <r>   -4.2098    1.0000 </r>
       <r>   -3.9231    1.0000 </r>
       <r>   -0.4895    1.0000 </r>
       <r>    0.3329    1.0000 </r>
       <r>    0.5828    1.0000 </r>
       <r>    1.6938    1.0000 </r>
       <r>    2.9812    1.0000 </r>
       <r>    3.1813    1.0000 </r>
       <r>    3.7086    1.0000 </r>
       <r>    3.9746    1.0000 </r>
       <r>    4.5296    1.0000 </r>
       <r>    4.6417    1.0000 </r>
       <r>    4.6456    1.0000 </r>
       <r>    4.7413    1.0000 </r>
       <r>    7.4559    0.0000 </r>
       <r>    7.6516    0.0000 </r>
       <r>    7.7986    0.0000 </r>
       <r>    8.1433    0.0000 </r>
       <r>    9.0297    0.0000 </r>
       <r>    9.1351    0.0000 </r>
       <r>    9.4395    0.0000 </r>
       <r>    9.7205    0.0000 </r>
      </set>
      <set comment="kpoint 20">
       <r>   -5.2209    1.0000 </r>
       <r>   -4.8316    1.0000 </r>
       <r>   -4.2076    1.0000 </r>
       <r>   -3.9270    1.0000 </r>
       <r>   -0.4773    1.0000 </r>
       <r>    0.3214    1.0000 </r>
       <r>    0.5734    1.0000 </r>
       <r>    1.7042    1.0000 </r>
       <r>    2.9926    1.0000 </r>
       <r>    3.1710    1.0000 </r>
       <r>    3.7076    1.0000 </r>
       <r>    3.9764    1.0000 </r>
       <r>    4.5316    1.0000 </r>
       <r>    4.6299    1.0000 </r>
       <r>    4.6414    1.0000 </r>
       <r>    4.7524    1.0000 </r>
       <r>    7.4552    0.0000 </r>
       <r>    7.6560    0.0000 </r>
       <r>    7.7986    0.0000 </r>
       <r>    8.1383    0.0000 </r>
       <r>    9.0355    0.0000 </r>
       <r>    9.1312    0.0000 </r>
       <r>    9.4520    0.0000 </r>
       <r>    9.7190    0.0000 </r>
      </set>
      <set comment="kpoint 21">
       <r>   -4.7763    1.0000 </r>
       <r>   -4.7671    1.0000 </r>
       <r>   -4.4256    1.0000 </r>
       <r>   -4.4164    1.0000 </r>
       <r>   -0.0144    1.0000 </r>
       <r>   -0.0017    1.0000 </r>
       <r>    0.9942    1.0000 </r>
       <r>    1.0066    1.0000 </r>
       <r>    3.8097    1.0000 </r>
       <r>    3.8227    1.0000 </r>
       <r>    4.0691    1.0000 </r>
       <r>    4.0774    1.0000 </r>
       <r>    4.0797    1.0000 </r>
       <r>    4.0894    1.0000 </r>
       <r>    4.2845    1.0000 </r>
       <r>    4.2964    1.0000 </r>
       <r>    7.8658    0.0000 </r>
       <r>    7.8730    0.0000 </r>
       <r>    7.9738    0.0000 </r>
       <r>    7.9804    0.0000 </r>
       <r>    9.0977    0.0000 </r>
       <r>    9.1005    0.0000 </r>
       <r>    9.7859    0.0000 </r>
       <r>    9.7909    0.0000 </r>
      </set>
      <set comment="kpoint 22">
       <r>   -6.0830    1.0000 </r>
       <r>   -4.0563    1.0000 </r>
       <r>   -4.0454    1.0000 </r>
       <r>   -2.0747    1.0000 </r>
       <r>   -1.9544    1.0000 </r>
       <r>    0.2391    1.0000 </r>
       <r>    0.2540    1.0000 </r>
       <r>    2.0846    1.0000 </r>
       <r>    2.0906    1.0000 </r>
       <r>    2.5186    1.0000 </r>
       <r>    2.9786    1.0000 </r>
       <r>    4.0431    1.0000 </r>
       <r>    4.0546    1.0000 </r>
       <r>    5.1273    1.0000 </r>
       <r>    5.4613    1.0000 </r>
       <r>    5.7148    1.0000 </r>
       <r>    6.5415    0.0000 </r>
       <r>    7.1306    0.0000 </r>
       <r>    8.3937    0.0000 </r>
       <r>    8.4487    0.0000 </r>
       <r>    8.5233    0.0000 </r>
       <r>    8.8135    0.0000 </r>
       <r>    8.8235    0.0000 </r>
       <r>    9.5249    0.0000 </r>
      </set>
      <set comment="kpoint 23">
       <r>   -6.0155    1.0000 </r>
       <r>   -4.0211    1.0000 </r>
       <r>   -4.0103    1.0000 </r>
       <r>   -2.9146    1.0000 </r>
       <r>   -1.0466    1.0000 </r>
       <r>   -0.0625    1.0000 </r>
       <r>   -0.0478    1.0000 </r>
       <r>    2.4591    1.0000 </r>
       <r>    2.4685    1.0000 </r>
       <r>    2.5971    1.0000 </r>
       <r>    3.0391    1.0000 </r>
       <r>    4.0761    1.0000 </r>
       <r>    4.0879    1.0000 </r>
       <r>    4.5713    1.0000 </r>
       <r>    5.4752    1.0000 </r>
       <r>    5.5808    1.0000 </r>
       <r>    6.5704    0.0000 </r>
       <r>    7.2797    0.0000 </r>
       <r>    8.3199    0.0000 </r>
       <r>    8.5445    0.0000 </r>
       <r>    8.7030    0.0000 </r>
       <r>    8.7930    0.0000 </r>
       <r>    8.7971    0.0000 </r>
       <r>    9.0812    0.0000 </r>
      </set>
      <set comment="kpoint 24">
       <r>   -6.0154    1.0000 </r>
       <r>   -4.0210    1.0000 </r>
       <r>   -4.0103    1.0000 </r>
       <r>   -2.9154    1.0000 </r>
       <r>   -1.0450    1.0000 </r>
       <r>   -0.0630    1.0000 </r>
       <r>   -0.0482    1.0000 </r>
       <r>    2.4611    1.0000 </r>
       <r>    2.4700    1.0000 </r>
       <r>    2.5959    1.0000 </r>
       <r>    3.0392    1.0000 </r>
       <r>    4.0753    1.0000 </r>
       <r>    4.0857    1.0000 </r>
       <r>    4.5649    1.0000 </r>
       <r>    5.4748    1.0000 </r>
       <r>    5.5889    1.0000 </r>
       <r>    6.5708    0.0000 </r>
       <r>    7.2796    0.0000 </r>
       <r>    8.3236    0.0000 </r>
       <r>    8.5401    0.0000 </r>
       <r>    8.7043    0.0000 </r>
       <r>    8.7926    0.0000 </r>
       <r>    8.8031    0.0000 </r>
       <r>    9.0701    0.0000 </r>
      </set>
      <set comment="kpoint 25">
       <r>   -5.8133    1.0000 </r>
       <r>   -3.9286    1.0000 </r>
       <r>   -3.9183    1.0000 </r>
       <r>   -3.7226    1.0000 </r>
       <r>   -0.5851    1.0000 </r>
       <r>   -0.5707    1.0000 </r>
       <r>   -0.0412    1.0000 </r>
       <r>    2.8330    1.0000 </r>
       <r>    3.1765    1.0000 </r>
       <r>    3.1872    1.0000 </r>
       <r>    3.2200    1.0000 </r>
       <r>    3.7517    1.0000 </r>
       <r>    4.1678    1.0000 </r>
       <r>    4.1795    1.0000 </r>
       <r>    4.9651    1.0000 </r>
       <r>    5.1671    1.0000 </r>
       <r>    6.6870    0.0000 </r>
       <r>    7.6942    0.0000 </r>
       <r>    8.1062    0.0000 </r>
       <r>    8.3187    0.0000 </r>
       <r>    8.3292    0.0000 </r>
       <r>    8.9045    0.0000 </r>
       <r>    8.9948    0.0000 </r>
       <r>    9.0052    0.0000 </r>
      </set>
      <set comment="kpoint 26">
       <r>   -5.8132    1.0000 </r>
       <r>   -3.9286    1.0000 </r>
       <r>   -3.9182    1.0000 </r>
       <r>   -3.7232    1.0000 </r>
       <r>   -0.5855    1.0000 </r>
       <r>   -0.5710    1.0000 </r>
       <r>   -0.0388    1.0000 </r>
       <r>    2.8305    1.0000 </r>
       <r>    3.1802    1.0000 </r>
       <r>    3.1904    1.0000 </r>
       <r>    3.2204    1.0000 </r>
       <r>    3.7456    1.0000 </r>
       <r>    4.1661    1.0000 </r>
       <r>    4.1738    1.0000 </r>
       <r>    4.9646    1.0000 </r>
       <r>    5.1752    1.0000 </r>
       <r>    6.6876    0.0000 </r>
       <r>    7.6943    0.0000 </r>
       <r>    8.1065    0.0000 </r>
       <r>    8.3198    0.0000 </r>
       <r>    8.3285    0.0000 </r>
       <r>    8.9032    0.0000 </r>
       <r>    8.9942    0.0000 </r>
       <r>    8.9976    0.0000 </r>
      </set>
      <set comment="kpoint 27">
       <r>   -5.4785    1.0000 </r>
       <r>   -4.4265    1.0000 </r>
       <r>   -3.8224    1.0000 </r>
       <r>   -3.8125    1.0000 </r>
       <r>   -0.9966    1.0000 </r>
       <r>   -0.9825    1.0000 </r>
       <r>    0.9691    1.0000 </r>
       <r>    2.8771    1.0000 </r>
       <r>    3.2303    1.0000 </r>
       <r>    3.5159    1.0000 </r>
       <r>    3.7905    1.0000 </r>
       <r>    3.7978    1.0000 </r>
       <r>    4.3104    1.0000 </r>
       <r>    4.3187    1.0000 </r>
       <r>    4.4155    1.0000 </r>
       <r>    4.4669    1.0000 </r>
       <r>    6.9179    0.0000 </r>
       <r>    7.6763    0.0000 </r>
       <r>    7.9013    0.0000 </r>
       <r>    7.9087    0.0000 </r>
       <r>    8.3334    0.0000 </r>
       <r>    9.0444    0.0000 </r>
       <r>    9.0526    0.0000 </r>
       <r>    9.6341    0.0000 </r>
      </set>
      <set comment="kpoint 28">
       <r>   -5.4783    1.0000 </r>
       <r>   -4.4269    1.0000 </r>
       <r>   -3.8224    1.0000 </r>
       <r>   -3.8125    1.0000 </r>
       <r>   -0.9968    1.0000 </r>
       <r>   -0.9827    1.0000 </r>
       <r>    0.9726    1.0000 </r>
       <r>    2.8716    1.0000 </r>
       <r>    3.2262    1.0000 </r>
       <r>    3.5162    1.0000 </r>
       <r>    3.7942    1.0000 </r>
       <r>    3.8041    1.0000 </r>
       <r>    4.3074    1.0000 </r>
       <r>    4.3114    1.0000 </r>
       <r>    4.4152    1.0000 </r>
       <r>    4.4741    1.0000 </r>
       <r>    6.9186    0.0000 </r>
       <r>    7.6759    0.0000 </r>
       <r>    7.9019    0.0000 </r>
       <r>    7.9073    0.0000 </r>
       <r>    8.3338    0.0000 </r>
       <r>    9.0411    0.0000 </r>
       <r>    9.0463    0.0000 </r>
       <r>    9.6466    0.0000 </r>
      </set>
      <set comment="kpoint 29">
       <r>   -5.0190    1.0000 </r>
       <r>   -5.0098    1.0000 </r>
       <r>   -3.7731    1.0000 </r>
       <r>   -3.7636    1.0000 </r>
       <r>   -1.1527    1.0000 </r>
       <r>   -1.1388    1.0000 </r>
       <r>    1.9467    1.0000 </r>
       <r>    1.9525    1.0000 </r>
       <r>    3.7796    1.0000 </r>
       <r>    3.7892    1.0000 </r>
       <r>    3.9147    1.0000 </r>
       <r>    3.9257    1.0000 </r>
       <r>    3.9990    1.0000 </r>
       <r>    4.0094    1.0000 </r>
       <r>    4.4214    1.0000 </r>
       <r>    4.4311    1.0000 </r>
       <r>    7.2552    0.0000 </r>
       <r>    7.2604    0.0000 </r>
       <r>    7.7591    0.0000 </r>
       <r>    7.7622    0.0000 </r>
       <r>    8.9833    0.0000 </r>
       <r>    8.9970    0.0000 </r>
       <r>    9.1461    0.0000 </r>
       <r>    9.1508    0.0000 </r>
      </set>
      <set comment="kpoint 30">
       <r>   -5.9961    1.0000 </r>
       <r>   -4.7418    1.0000 </r>
       <r>   -3.3053    1.0000 </r>
       <r>   -1.9966    1.0000 </r>
       <r>   -1.9806    1.0000 </r>
       <r>   -0.5812    1.0000 </r>
       <r>    1.2435    1.0000 </r>
       <r>    1.5838    1.0000 </r>
       <r>    2.5043    1.0000 </r>
       <r>    2.5896    1.0000 </r>
       <r>    2.8230    1.0000 </r>
       <r>    3.5650    1.0000 </r>
       <r>    4.5114    1.0000 </r>
       <r>    4.8699    1.0000 </r>
       <r>    5.2182    1.0000 </r>
       <r>    5.2342    1.0000 </r>
       <r>    7.2087    0.0000 </r>
       <r>    7.3086    0.0000 </r>
       <r>    7.9710    0.0000 </r>
       <r>    8.2895    0.0000 </r>
       <r>    8.7542    0.0000 </r>
       <r>    9.0356    0.0000 </r>
       <r>    9.0421    0.0000 </r>
       <r>    9.2453    0.0000 </r>
      </set>
      <set comment="kpoint 31">
       <r>   -5.9961    1.0000 </r>
       <r>   -4.7418    1.0000 </r>
       <r>   -3.3053    1.0000 </r>
       <r>   -1.9968    1.0000 </r>
       <r>   -1.9804    1.0000 </r>
       <r>   -0.5812    1.0000 </r>
       <r>    1.2435    1.0000 </r>
       <r>    1.5838    1.0000 </r>
       <r>    2.5043    1.0000 </r>
       <r>    2.5896    1.0000 </r>
       <r>    2.8230    1.0000 </r>
       <r>    3.5650    1.0000 </r>
       <r>    4.5114    1.0000 </r>
       <r>    4.8698    1.0000 </r>
       <r>    5.2216    1.0000 </r>
       <r>    5.2310    1.0000 </r>
       <r>    7.2087    0.0000 </r>
       <r>    7.3086    0.0000 </r>
       <r>    7.9710    0.0000 </r>
       <r>    8.2896    0.0000 </r>
       <r>    8.7543    0.0000 </r>
       <r>    9.0372    0.0000 </r>
       <r>    9.0404    0.0000 </r>
       <r>    9.2452    0.0000 </r>
      </set>
      <set comment="kpoint 32">
       <r>   -5.9289    1.0000 </r>
       <r>   -4.6875    1.0000 </r>
       <r>   -3.3287    1.0000 </r>
       <r>   -2.8649    1.0000 </r>
       <r>   -1.0564    1.0000 </r>
       <r>   -0.7576    1.0000 </r>
       <r>    0.8762    1.0000 </r>
       <r>    1.9017    1.0000 </r>
       <r>    2.5251    1.0000 </r>
       <r>    2.7250    1.0000 </r>
       <r>    3.2275    1.0000 </r>
       <r>    3.6324    1.0000 </r>
       <r>    4.2645    1.0000 </r>
       <r>    4.4800    1.0000 </r>
       <r>    4.9656    1.0000 </r>
       <r>    5.5661    1.0000 </r>
       <r>    7.1537    0.0000 </r>
       <r>    7.5336    0.0000 </r>
       <r>    8.3208    0.0000 </r>
       <r>    8.3464    0.0000 </r>
       <r>    8.4458    0.0000 </r>
       <r>    8.7422    0.0000 </r>
       <r>    8.9101    0.0000 </r>
       <r>    9.2530    0.0000 </r>
      </set>
      <set comment="kpoint 33">
       <r>   -5.9288    1.0000 </r>
       <r>   -4.6874    1.0000 </r>
       <r>   -3.3287    1.0000 </r>
       <r>   -2.8657    1.0000 </r>
       <r>   -1.0548    1.0000 </r>
       <r>   -0.7578    1.0000 </r>
       <r>    0.8755    1.0000 </r>
       <r>    1.9032    1.0000 </r>
       <r>    2.5254    1.0000 </r>
       <r>    2.7237    1.0000 </r>
       <r>    3.2294    1.0000 </r>
       <r>    3.6309    1.0000 </r>
       <r>    4.2600    1.0000 </r>
       <r>    4.4785    1.0000 </r>
       <r>    4.9656    1.0000 </r>
       <r>    5.5722    1.0000 </r>
       <r>    7.1545    0.0000 </r>
       <r>    7.5332    0.0000 </r>
       <r>    8.3192    0.0000 </r>
       <r>    8.3472    0.0000 </r>
       <r>    8.4458    0.0000 </r>
       <r>    8.7419    0.0000 </r>
       <r>    8.9114    0.0000 </r>
       <r>    9.2492    0.0000 </r>
      </set>
      <set comment="kpoint 34">
       <r>   -5.9290    1.0000 </r>
       <r>   -4.6865    1.0000 </r>
       <r>   -3.3320    1.0000 </r>
       <r>   -2.8639    1.0000 </r>
       <r>   -1.0584    1.0000 </r>
       <r>   -0.7489    1.0000 </r>
       <r>    0.8687    1.0000 </r>
       <r>    1.8972    1.0000 </r>
       <r>    2.5261    1.0000 </r>
       <r>    2.7253    1.0000 </r>
       <r>    3.2359    1.0000 </r>
       <r>    3.6315    1.0000 </r>
       <r>    4.2706    1.0000 </r>
       <r>    4.4772    1.0000 </r>
       <r>    4.9634    1.0000 </r>
       <r>    5.5607    1.0000 </r>
       <r>    7.1530    0.0000 </r>
       <r>    7.5340    0.0000 </r>
       <r>    8.3220    0.0000 </r>
       <r>    8.3472    0.0000 </r>
       <r>    8.4529    0.0000 </r>
       <r>    8.7388    0.0000 </r>
       <r>    8.9123    0.0000 </r>
       <r>    9.2482    0.0000 </r>
      </set>
      <set comment="kpoint 35">
       <r>   -5.9290    1.0000 </r>
       <r>   -4.6865    1.0000 </r>
       <r>   -3.3319    1.0000 </r>
       <r>   -2.8631    1.0000 </r>
       <r>   -1.0599    1.0000 </r>
       <r>   -0.7488    1.0000 </r>
       <r>    0.8694    1.0000 </r>
       <r>    1.8958    1.0000 </r>
       <r>    2.5258    1.0000 </r>
       <r>    2.7266    1.0000 </r>
       <r>    3.2339    1.0000 </r>
       <r>    3.6330    1.0000 </r>
       <r>    4.2751    1.0000 </r>
       <r>    4.4788    1.0000 </r>
       <r>    4.9635    1.0000 </r>
       <r>    5.5544    1.0000 </r>
       <r>    7.1523    0.0000 </r>
       <r>    7.5344    0.0000 </r>
       <r>    8.3225    0.0000 </r>
       <r>    8.3475    0.0000 </r>
       <r>    8.4528    0.0000 </r>
       <r>    8.7391    0.0000 </r>
       <r>    8.9109    0.0000 </r>
       <r>    9.2520    0.0000 </r>
      </set>
      <set comment="kpoint 36">
       <r>   -5.7279    1.0000 </r>
       <r>   -4.5278    1.0000 </r>
       <r>   -3.6594    1.0000 </r>
       <r>   -3.4318    1.0000 </r>
       <r>   -1.0057    1.0000 </r>
       <r>   -0.1029    1.0000 </r>
       <r>    0.2393    1.0000 </r>
       <r>    2.5737    1.0000 </r>
       <r>    2.6651    1.0000 </r>
       <r>    3.0543    1.0000 </r>
       <r>    3.4451    1.0000 </r>
       <r>    3.8405    1.0000 </r>
       <r>    3.9246    1.0000 </r>
       <r>    4.3707    1.0000 </r>
       <r>    4.4193    1.0000 </r>
       <r>    5.4734    1.0000 </r>
       <r>    7.2140    0.0000 </r>
       <r>    7.9806    0.0000 </r>
       <r>    8.0592    0.0000 </r>
       <r>    8.4783    0.0000 </r>
       <r>    8.5300    0.0000 </r>
       <r>    8.8144    0.0000 </r>
       <r>    9.0647    0.0000 </r>
       <r>    9.1296    0.0000 </r>
      </set>
      <set comment="kpoint 37">
       <r>   -5.7278    1.0000 </r>
       <r>   -4.5277    1.0000 </r>
       <r>   -3.6600    1.0000 </r>
       <r>   -3.4320    1.0000 </r>
       <r>   -1.0057    1.0000 </r>
       <r>   -0.1008    1.0000 </r>
       <r>    0.2387    1.0000 </r>
       <r>    2.5767    1.0000 </r>
       <r>    2.6651    1.0000 </r>
       <r>    3.0521    1.0000 </r>
[...]
       <r>   -3.3192    1.0000 </r>
       <r>   -3.0062    1.0000 </r>
       <r>   -1.0408    1.0000 </r>
       <r>   -1.0045    1.0000 </r>
       <r>   -0.6979    1.0000 </r>
       <r>   -0.6658    1.0000 </r>
       <r>    1.7801    1.0000 </r>
       <r>    2.0769    1.0000 </r>
       <r>    2.5273    1.0000 </r>
       <r>    2.8807    1.0000 </r>
       <r>    3.2873    1.0000 </r>
       <r>    3.4458    1.0000 </r>
       <r>    3.9072    1.0000 </r>
       <r>    3.9511    1.0000 </r>
       <r>    7.6634    0.0000 </r>
       <r>    7.7506    0.0000 </r>
       <r>    8.0376    0.0000 </r>
       <r>    8.1758    0.0000 </r>
       <r>    9.5202    0.0000 </r>
       <r>   10.0292    0.0000 </r>
       <r>   10.1635    0.0000 </r>
       <r>   10.6469    0.0000 </r>
      </set>
      <set comment="kpoint 219">
       <r>   -3.7396    1.0000 </r>
       <r>   -3.4206    1.0000 </r>
       <r>   -3.3213    1.0000 </r>
       <r>   -3.0029    1.0000 </r>
       <r>   -1.0455    1.0000 </r>
       <r>   -1.0129    1.0000 </r>
       <r>   -0.6937    1.0000 </r>
       <r>   -0.6587    1.0000 </r>
       <r>    1.7800    1.0000 </r>
       <r>    2.0774    1.0000 </r>
       <r>    2.5279    1.0000 </r>
       <r>    2.8812    1.0000 </r>
       <r>    3.2832    1.0000 </r>
       <r>    3.4492    1.0000 </r>
       <r>    3.9028    1.0000 </r>
       <r>    3.9542    1.0000 </r>
       <r>    7.6664    0.0000 </r>
       <r>    7.7539    0.0000 </r>
       <r>    8.0352    0.0000 </r>
       <r>    8.1731    0.0000 </r>
       <r>    9.5165    0.0000 </r>
       <r>   10.0267    0.0000 </r>
       <r>   10.1664    0.0000 </r>
       <r>   10.6360    0.0000 </r>
      </set>
      <set comment="kpoint 220">
       <r>   -3.5500    1.0000 </r>
       <r>   -3.5422    1.0000 </r>
       <r>   -3.1362    1.0000 </r>
       <r>   -3.1282    1.0000 </r>
       <r>   -0.9618    1.0000 </r>
       <r>   -0.9577    1.0000 </r>
       <r>   -0.9430    1.0000 </r>
       <r>   -0.9313    1.0000 </r>
       <r>    1.9022    1.0000 </r>
       <r>    1.9081    1.0000 </r>
       <r>    2.7527    1.0000 </r>
       <r>    2.7609    1.0000 </r>
       <r>    3.3245    1.0000 </r>
       <r>    3.3319    1.0000 </r>
       <r>    3.9887    1.0000 </r>
       <r>    3.9913    1.0000 </r>
       <r>    8.3921    0.0000 </r>
       <r>    8.3970    0.0000 </r>
       <r>    8.7304    0.0000 </r>
       <r>    8.7418    0.0000 </r>
       <r>    9.0402    0.0000 </r>
       <r>    9.0524    0.0000 </r>
       <r>    9.3985    0.0000 </r>
       <r>    9.4048    0.0000 </r>
      </set>
      <set comment="kpoint 221">
       <r>   -3.5502    1.0000 </r>
       <r>   -3.5420    1.0000 </r>
       <r>   -3.1358    1.0000 </r>
       <r>   -3.1286    1.0000 </r>
       <r>   -0.9626    1.0000 </r>
       <r>   -0.9570    1.0000 </r>
       <r>   -0.9412    1.0000 </r>
       <r>   -0.9331    1.0000 </r>
       <r>    1.9023    1.0000 </r>
       <r>    1.9080    1.0000 </r>
       <r>    2.7525    1.0000 </r>
       <r>    2.7611    1.0000 </r>
       <r>    3.3268    1.0000 </r>
       <r>    3.3297    1.0000 </r>
       <r>    3.9858    1.0000 </r>
       <r>    3.9941    1.0000 </r>
       <r>    8.3902    0.0000 </r>
       <r>    8.3989    0.0000 </r>
       <r>    8.7334    0.0000 </r>
       <r>    8.7386    0.0000 </r>
       <r>    9.0438    0.0000 </r>
       <r>    9.0489    0.0000 </r>
       <r>    9.3964    0.0000 </r>
       <r>    9.4070    0.0000 </r>
      </set>
     </set>
    </set>
   </array>
  </eigenvalues>
  <separator name="orbital magnetization" >
   <v name="MAGDIPOLOUT">      0.00000000      0.00000000      0.00000000</v>
  </separator>
  <dos>
   <i name="efermi">      5.82691690 </i>
   <total>
    <array>
     <dimension dim="1">gridpoints</dimension>
     <dimension dim="2">spin</dimension>
     <field>energy</field>
     <field>total</field>
     <field>integrated</field>
     <set>
      <set comment="spin 1">
       <r>    -6.9949     0.0000     0.0000 </r>
       <r>    -6.9333     0.0000     0.0000 </r>
       <r>    -6.8717     0.0000     0.0000 </r>
       <r>    -6.8101     0.0000     0.0000 </r>
       <r>    -6.7485     0.0000     0.0000 </r>
       <r>    -6.6869     0.0000     0.0000 </r>
       <r>    -6.6253     0.0000     0.0000 </r>
       <r>    -6.5637     0.0000     0.0000 </r>
       <r>    -6.5021     0.0000     0.0000 </r>
       <r>    -6.4405     0.0000     0.0000 </r>
       <r>    -6.3789     0.0000     0.0000 </r>
       <r>    -6.3172     0.0000     0.0000 </r>
       <r>    -6.2556     0.0000     0.0000 </r>
       <r>    -6.1940     0.0000     0.0000 </r>
       <r>    -6.1324     0.0737     0.0045 </r>
       <r>    -6.0708     0.3377     0.0254 </r>
       <r>    -6.0092     0.3848     0.0491 </r>
       <r>    -5.9476     0.6080     0.0865 </r>
       <r>    -5.8860     0.6431     0.1261 </r>
       <r>    -5.8244     0.2595     0.1421 </r>
       <r>    -5.7628     1.3084     0.2227 </r>
       <r>    -5.7012     1.7593     0.3312 </r>
       <r>    -5.6396     0.6007     0.3682 </r>
       <r>    -5.5780     0.2951     0.3864 </r>
       <r>    -5.5164     1.1507     0.4573 </r>
       <r>    -5.4548     2.0269     0.5821 </r>
       <r>    -5.3931     1.0577     0.6473 </r>
       <r>    -5.3315     0.9687     0.7070 </r>
       <r>    -5.2699     1.0145     0.7695 </r>
       <r>    -5.2083     1.5980     0.8680 </r>
       <r>    -5.1467     1.9509     0.9882 </r>
       <r>    -5.0851     1.3329     1.0703 </r>
       <r>    -5.0235     1.4705     1.1609 </r>
       <r>    -4.9619     0.9126     1.2171 </r>
       <r>    -4.9003     2.3965     1.3648 </r>
       <r>    -4.8387     1.7415     1.4721 </r>
       <r>    -4.7771     1.0645     1.5377 </r>
       <r>    -4.7155     2.8094     1.7108 </r>
       <r>    -4.6539     2.1141     1.8410 </r>
       <r>    -4.5923     1.4147     1.9282 </r>
       <r>    -4.5307     1.1474     1.9988 </r>
       <r>    -4.4691     2.8743     2.1759 </r>
       <r>    -4.4074     2.8543     2.3518 </r>
       <r>    -4.3458     1.7070     2.4570 </r>
       <r>    -4.2842     1.5909     2.5550 </r>
       <r>    -4.2226     1.8454     2.6687 </r>
       <r>    -4.1610     4.0949     2.9210 </r>
       <r>    -4.0994     2.0613     3.0481 </r>
       <r>    -4.0378     3.3395     3.2539 </r>
       <r>    -3.9762     2.1934     3.3891 </r>
       <r>    -3.9146     3.4720     3.6030 </r>
       <r>    -3.8530     1.4055     3.6896 </r>
       <r>    -3.7914     3.5103     3.9059 </r>
       <r>    -3.7298     3.6398     4.1301 </r>
       <r>    -3.6682     5.4563     4.4663 </r>
       <r>    -3.6066     3.3341     4.6718 </r>
       <r>    -3.5450     1.4455     4.7609 </r>
       <r>    -3.4834     3.0021     4.9458 </r>
       <r>    -3.4217     4.8000     5.2416 </r>
       <r>    -3.3601     3.2335     5.4408 </r>
       <r>    -3.2985     4.2292     5.7014 </r>
       <r>    -3.2369     1.2270     5.7770 </r>
       <r>    -3.1753     1.1808     5.8498 </r>
       <r>    -3.1137     2.6854     6.0153 </r>
       <r>    -3.0521     2.9404     6.1964 </r>
       <r>    -2.9905     2.3709     6.3425 </r>
       <r>    -2.9289     2.5253     6.4981 </r>
       <r>    -2.8673     2.7508     6.6676 </r>
       <r>    -2.8057     2.6561     6.8313 </r>
       <r>    -2.7441     3.8253     7.0669 </r>
       <r>    -2.6825     1.9374     7.1864 </r>
       <r>    -2.6209     1.4151     7.2735 </r>
       <r>    -2.5593     1.1637     7.3452 </r>
       <r>    -2.4976     0.2250     7.3591 </r>
       <r>    -2.4360     1.7225     7.4652 </r>
       <r>    -2.3744     2.8324     7.6397 </r>
       <r>    -2.3128     0.9980     7.7012 </r>
       <r>    -2.2512     1.3700     7.7856 </r>
       <r>    -2.1896     1.3335     7.8677 </r>
       <r>    -2.1280     0.6939     7.9105 </r>
       <r>    -2.0664     0.4561     7.9386 </r>
       <r>    -2.0048     0.5171     7.9705 </r>
       <r>    -1.9432     1.0673     8.0362 </r>
       <r>    -1.8816     0.0760     8.0409 </r>
       <r>    -1.8200     0.2951     8.0591 </r>
       <r>    -1.7584     0.2316     8.0734 </r>
       <r>    -1.6968     0.9890     8.1343 </r>
       <r>    -1.6352     1.6232     8.2343 </r>
       <r>    -1.5736     2.2439     8.3725 </r>
       <r>    -1.5119     0.7960     8.4216 </r>
       <r>    -1.4503     0.6779     8.4634 </r>
       <r>    -1.3887     1.8862     8.5796 </r>
       <r>    -1.3271     1.1171     8.6484 </r>
       <r>    -1.2655     0.0316     8.6503 </r>
       <r>    -1.2039     1.8353     8.7634 </r>
       <r>    -1.1423     2.8522     8.9391 </r>
       <r>    -1.0807     6.5685     9.3438 </r>
       <r>    -1.0191     6.3714     9.7364 </r>
       <r>    -0.9575     7.5520    10.2019 </r>
       <r>    -0.8959     4.4229    10.4744 </r>
       <r>    -0.8343     5.6111    10.8200 </r>
       <r>    -0.7727     3.5248    11.0372 </r>
       <r>    -0.7111     3.2101    11.2351 </r>
       <r>    -0.6495     2.6991    11.4013 </r>
       <r>    -0.5878     0.5949    11.4380 </r>
       <r>    -0.5262     3.3042    11.6416 </r>
       <r>    -0.4646     2.5410    11.7981 </r>
       <r>    -0.4030     2.6521    11.9615 </r>
       <r>    -0.3414     3.0176    12.1475 </r>
       <r>    -0.2798     2.6312    12.3096 </r>
       <r>    -0.2182     3.0389    12.4969 </r>
       <r>    -0.1566     1.0240    12.5600 </r>
       <r>    -0.0950     2.3339    12.7039 </r>
       <r>    -0.0334     3.1926    12.9006 </r>
       <r>     0.0282     1.5710    12.9975 </r>
       <r>     0.0898     1.5466    13.0927 </r>
       <r>     0.1514     0.6307    13.1316 </r>
       <r>     0.2130     0.7134    13.1756 </r>
       <r>     0.2746     2.6789    13.3406 </r>
       <r>     0.3362     2.2252    13.4777 </r>
       <r>     0.3979     1.3206    13.5591 </r>
       <r>     0.4595     1.0960    13.6266 </r>
       <r>     0.5211     1.2650    13.7045 </r>
       <r>     0.5827     0.4424    13.7318 </r>
       <r>     0.6443     3.1335    13.9248 </r>
       <r>     0.7059     0.5557    13.9591 </r>
       <r>     0.7675     0.4378    13.9861 </r>
       <r>     0.8291     0.8935    14.0411 </r>
       <r>     0.8907     2.6443    14.2040 </r>
       <r>     0.9523     0.8880    14.2588 </r>
       <r>     1.0139     1.7515    14.3667 </r>
       <r>     1.0755     0.3176    14.3863 </r>
       <r>     1.1371     0.7270    14.4312 </r>
       <r>     1.1987     0.8838    14.4856 </r>
       <r>     1.2603     1.3682    14.5699 </r>
       <r>     1.3219     1.4479    14.6591 </r>
       <r>     1.3836     0.3213    14.6789 </r>
       <r>     1.4452     1.8449    14.7925 </r>
       <r>     1.5068     2.7980    14.9649 </r>
       <r>     1.5684     2.2323    15.1025 </r>
       <r>     1.6300     4.0292    15.3507 </r>
       <r>     1.6916     5.0460    15.6616 </r>
       <r>     1.7532     5.2719    15.9863 </r>
       <r>     1.8148     4.2451    16.2480 </r>
       <r>     1.8764     5.0024    16.5562 </r>
       <r>     1.9380     6.5030    16.9569 </r>
       <r>     1.9996     3.0029    17.1419 </r>
       <r>     2.0612     2.2785    17.2823 </r>
       <r>     2.1228     3.7378    17.5126 </r>
       <r>     2.1844     5.6314    17.8595 </r>
       <r>     2.2460     3.5802    18.0801 </r>
       <r>     2.3077     6.0909    18.4554 </r>
       <r>     2.3693     2.4570    18.6068 </r>
       <r>     2.4309     3.1778    18.8025 </r>
       <r>     2.4925     5.1461    19.1196 </r>
       <r>     2.5541     3.9352    19.3621 </r>
       <r>     2.6157     5.2465    19.6854 </r>
       <r>     2.6773     5.0000    19.9935 </r>
       <r>     2.7389     4.4803    20.2695 </r>
       <r>     2.8005     5.1168    20.5848 </r>
       <r>     2.8621     5.7734    20.9406 </r>
       <r>     2.9237     6.8591    21.3632 </r>
       <r>     2.9853     4.5920    21.6462 </r>
       <r>     3.0469     4.9646    21.9521 </r>
       <r>     3.1085     6.8739    22.3756 </r>
       <r>     3.1701     4.9140    22.6784 </r>
       <r>     3.2317     6.7399    23.0936 </r>
       <r>     3.2934     5.6521    23.4418 </r>
       <r>     3.3550     6.3984    23.8360 </r>
       <r>     3.4166     4.8658    24.1359 </r>
       <r>     3.4782     7.5648    24.6020 </r>
       <r>     3.5398     5.3220    24.9299 </r>
       <r>     3.6014     4.6704    25.2177 </r>
       <r>     3.6630     4.1113    25.4710 </r>
       <r>     3.7246     4.0542    25.7208 </r>
       <r>     3.7862     6.5198    26.1225 </r>
       <r>     3.8478     6.3497    26.5138 </r>
       <r>     3.9094     4.1626    26.7702 </r>
       <r>     3.9710     8.1170    27.2704 </r>
       <r>     4.0326     4.4268    27.5433 </r>
       <r>     4.0942     3.2889    27.7459 </r>
       <r>     4.1558     4.9488    28.0508 </r>
       <r>     4.2174     5.2295    28.3730 </r>
       <r>     4.2791     4.1738    28.6303 </r>
       <r>     4.3407     4.5995    28.9137 </r>
       <r>     4.4023     4.5713    29.1954 </r>
       <r>     4.4639     3.7061    29.4238 </r>
       <r>     4.5255     6.3011    29.8120 </r>
       <r>     4.5871     4.2924    30.0765 </r>
       <r>     4.6487     3.5883    30.2976 </r>
       <r>     4.7103     3.7344    30.5277 </r>
       <r>     4.7719     2.2875    30.6687 </r>
       <r>     4.8335     0.8766    30.7227 </r>
       <r>     4.8951     2.7312    30.8910 </r>
       <r>     4.9567     1.6405    30.9921 </r>
       <r>     5.0183     4.8109    31.2884 </r>
       <r>     5.0799     2.0155    31.4126 </r>
       <r>     5.1415     1.1815    31.4854 </r>
       <r>     5.2032     1.1587    31.5568 </r>
       <r>     5.2648     0.9335    31.6143 </r>
       <r>     5.3264     1.0642    31.6799 </r>
       <r>     5.3880     0.7351    31.7252 </r>
       <r>     5.4496     0.8598    31.7781 </r>
       <r>     5.5112     1.6027    31.8769 </r>
       <r>     5.5728     0.8025    31.9263 </r>
       <r>     5.6344     0.6794    31.9682 </r>
       <r>     5.6960     0.0006    31.9682 </r>
       <r>     5.7576     0.4244    31.9944 </r>
       <r>     5.8192     0.0915    32.0000 </r>
       <r>     5.8808     0.0000    32.0000 </r>
       <r>     5.9424     0.0000    32.0000 </r>
       <r>     6.0040     0.0000    32.0000 </r>
       <r>     6.0656     0.0000    32.0000 </r>
       <r>     6.1272     0.0000    32.0000 </r>
       <r>     6.1889     0.0000    32.0000 </r>
       <r>     6.2505     0.0000    32.0000 </r>
       <r>     6.3121     0.0000    32.0000 </r>
       <r>     6.3737     0.1663    32.0102 </r>
       <r>     6.4353     0.7181    32.0545 </r>
       <r>     6.4969     0.4412    32.0817 </r>
       <r>     6.5585     0.2118    32.0948 </r>
       <r>     6.6201     1.2531    32.1720 </r>
       <r>     6.6817     1.8362    32.2852 </r>
       <r>     6.7433     1.7166    32.3909 </r>
       <r>     6.8049     1.1684    32.4629 </r>
       <r>     6.8665     0.3311    32.4833 </r>
       <r>     6.9281     2.5515    32.6405 </r>
       <r>     6.9897     1.4984    32.7328 </r>
       <r>     7.0513     2.1199    32.8634 </r>
       <r>     7.1130     2.4363    33.0135 </r>
       <r>     7.1746     2.7847    33.1851 </r>
       <r>     7.2362     2.1675    33.3187 </r>
       <r>     7.2978     2.4257    33.4682 </r>
       <r>     7.3594     3.4626    33.6815 </r>
       <r>     7.4210     2.3569    33.8268 </r>
       <r>     7.4826     3.5337    34.0445 </r>
       <r>     7.5442     4.2328    34.3053 </r>
       <r>     7.6058     3.1969    34.5023 </r>
       <r>     7.6674     3.6574    34.7276 </r>
       <r>     7.7290     6.2494    35.1126 </r>
       <r>     7.7906     5.3081    35.4397 </r>
       <r>     7.8522     4.7987    35.7353 </r>
       <r>     7.9138     6.8294    36.1560 </r>
       <r>     7.9754     2.9078    36.3352 </r>
       <r>     8.0370     6.4324    36.7315 </r>
       <r>     8.0987     7.8424    37.2147 </r>
       <r>     8.1603     6.6150    37.6224 </r>
       <r>     8.2219     5.0704    37.9349 </r>
       <r>     8.2835     4.7446    38.2272 </r>
       <r>     8.3451     5.4936    38.5657 </r>
       <r>     8.4067     6.6967    38.9783 </r>
       <r>     8.4683     5.0342    39.2885 </r>
       <r>     8.5299     4.3717    39.5579 </r>
       <r>     8.5915     3.4562    39.7708 </r>
       <r>     8.6531     5.4398    40.1060 </r>
       <r>     8.7147     4.4701    40.3814 </r>
       <r>     8.7763     3.6114    40.6040 </r>
       <r>     8.8379     4.6423    40.8900 </r>
       <r>     8.8995     4.6383    41.1757 </r>
       <r>     8.9611     5.9587    41.5428 </r>
       <r>     9.0227     5.3997    41.8755 </r>
       <r>     9.0844    13.1256    42.6842 </r>
       <r>     9.1460     4.7260    42.9755 </r>
       <r>     9.2076     8.3240    43.4884 </r>
       <r>     9.2692     9.5561    44.0771 </r>
       <r>     9.3308     4.3074    44.3426 </r>
       <r>     9.3924     7.1122    44.7808 </r>
       <r>     9.4540     6.7671    45.1977 </r>
       <r>     9.5156     6.7345    45.6126 </r>
       <r>     9.5772     6.4715    46.0114 </r>
       <r>     9.6388     3.3677    46.2189 </r>
       <r>     9.7004     3.5255    46.4362 </r>
       <r>     9.7620     3.7299    46.6660 </r>
       <r>     9.8236     1.6073    46.7651 </r>
       <r>     9.8852     2.5218    46.9204 </r>
       <r>     9.9468     2.3300    47.0641 </r>
       <r>    10.0085     1.0755    47.1303 </r>
       <r>    10.0701     3.2325    47.3295 </r>
       <r>    10.1317     1.1453    47.4001 </r>
       <r>    10.1933     3.7185    47.6291 </r>
       <r>    10.2549     1.3264    47.7109 </r>
       <r>    10.3165     0.6978    47.7540 </r>
       <r>    10.3781     0.3269    47.7741 </r>
       <r>    10.4397     1.2771    47.8528 </r>
       <r>    10.5013     1.4771    47.9438 </r>
       <r>    10.5629     0.3216    47.9636 </r>
       <r>    10.6245     0.0080    47.9641 </r>
       <r>    10.6861     0.5823    48.0000 </r>
       <r>    10.7477     0.0000    48.0000 </r>
       <r>    10.8093     0.0000    48.0000 </r>
       <r>    10.8709     0.0000    48.0000 </r>
       <r>    10.9325     0.0000    48.0000 </r>
       <r>    10.9942     0.0000    48.0000 </r>
       <r>    11.0558     0.0000    48.0000 </r>
       <r>    11.1174     0.0000    48.0000 </r>
       <r>    11.1790     0.0000    48.0000 </r>
       <r>    11.2406     0.0000    48.0000 </r>
       <r>    11.3022     0.0000    48.0000 </r>
       <r>    11.3638     0.0000    48.0000 </r>
       <r>    11.4254     0.0000    48.0000 </r>
       <r>    11.4870     0.0000    48.0000 </r>
      </set>
     </set>
    </array>
   </total>
  </dos>
 </calculation>
 <structure name="finalpos" >
  <crystal>
   <varray name="basis" >
    <v>      -0.00000000      -0.00000000       5.44370237 </v>
    <v>       5.44370237      -5.44370237       0.00000000 </v>
    <v>       2.72185119       2.72185119       0.00000000 </v>
   </varray>
   <i name="volume">    161.31810740 </i>
   <varray name="rec_basis" >
    <v>      -0.00000000       0.00000000       0.18369851 </v>
    <v>       0.09184925      -0.09184925      -0.00000000 </v>
    <v>       0.18369851       0.18369851       0.00000000 </v>
   </varray>
  </crystal>
  <varray name="positions" >
   <v>       0.99901809       0.99901809       0.99901809 </v>
   <v>       0.50000000       0.75000000       0.50000000 </v>
   <v>       0.00000000       0.50000000       0.00000000 </v>
   <v>       0.50000000       0.25000000       0.50000000 </v>
   <v>       0.25000000       0.00000000       0.50000000 </v>
   <v>       0.75000000       0.75000000       0.00000000 </v>
   <v>       0.25000000       0.50000000       0.50000000 </v>
   <v>       0.75000000       0.25000000       0.00000000 </v>
  </varray>
 </structure>
</modeling>
