<?xml version="1.0" encoding="ISO-8859-1"?>
<modeling>
 <generator>
  <i name="program" type="string">vasp </i>
  <i name="version" type="string">6.4.3  </i>
  <i name="subversion" type="string">19Mar24 (build Jun 20 2024 15:56:09) complex                          parallel </i>
  <i name="platform" type="string">LinuxNV_CrayMPICH </i>
  <i name="date" type="string">2025 02 12 </i>
  <i name="time" type="string">10:46:55 </i>
 </generator>
 <incar>
  <i type="string" name="PREC">Accurate</i>
  <i type="int" name="IBRION">    -1</i>
  <i name="EDIFF">      0.00000010</i>
  <i type="int" name="NSW">     0</i>
  <i name="ENCUT">    900.00000000</i>
  <i type="logical" name="LREAL"> F  </i>
  <i type="int" name="ISMEAR">     0</i>
  <i name="SIGMA">      0.01000000</i>
  <i type="logical" name="LWAVE"> F  </i>
  <i type="logical" name="LCHARG"> F  </i>
  <i type="int" name="IVDW">    12</i>
 </incar>
 <primitive_cell>
  <structure name="primitive_cell" >
   <crystal>
    <varray name="basis" >
     <v>       5.86288214       3.38493658       0.00000000 </v>
     <v>      -0.97714702       1.69246829       0.00000000 </v>
     <v>       0.00000000       0.00000000       9.56312345 </v>
    </varray>
    <i name="volume">    126.52321019 </i>
    <varray name="rec_basis" >
     <v>       0.12792343       0.07385663      -0.00000000 </v>
     <v>      -0.25584686       0.44313976       0.00000000 </v>
     <v>       0.00000000      -0.00000000       0.10456835 </v>
    </varray>
   </crystal>
   <varray name="positions" >
    <v>       0.08249149       0.49915816       0.08249149 </v>
    <v>       0.33333333       0.00000000       0.08333333 </v>
    <v>       0.58333333       0.50000000       0.08333333 </v>
    <v>       0.83333333       0.00000000       0.08333333 </v>
    <v>       0.08333333       0.50000000       0.41666667 </v>
    <v>       0.33333333       0.00000000       0.41666667 </v>
    <v>       0.58333333       0.50000000       0.41666667 </v>
    <v>       0.83333333       0.00000000       0.41666667 </v>
    <v>       0.08333333       0.50000000       0.75000000 </v>
    <v>       0.33333333       0.00000000       0.75000000 </v>
    <v>       0.58333333       0.50000000       0.75000000 </v>
    <v>       0.83333333       0.00000000       0.75000000 </v>
    <v>       0.16666667       0.00000000       0.25000000 </v>
    <v>       0.41666667       0.50000000       0.25000000 </v>
    <v>       0.66666667       0.00000000       0.25000000 </v>
    <v>       0.91666667       0.50000000       0.25000000 </v>
    <v>       0.16666667       0.00000000       0.58333333 </v>
    <v>       0.41666667       0.50000000       0.58333333 </v>
    <v>       0.66666667       0.00000000       0.58333333 </v>
    <v>       0.91666667       0.50000000       0.58333333 </v>
    <v>       0.16666667       0.00000000       0.91666667 </v>
    <v>       0.41666667       0.50000000       0.91666667 </v>
    <v>       0.66666667       0.00000000       0.91666667 </v>
    <v>       0.91666667       0.50000000       0.91666667 </v>
   </varray>
  </structure>
  <varray name="primitive_index" >
   <v type="int" >        1 </v>
   <v type="int" >        2 </v>
   <v type="int" >        3 </v>
   <v type="int" >        4 </v>
   <v type="int" >        5 </v>
   <v type="int" >        6 </v>
   <v type="int" >        7 </v>
   <v type="int" >        8 </v>
   <v type="int" >        9 </v>
   <v type="int" >       10 </v>
   <v type="int" >       11 </v>
   <v type="int" >       12 </v>
   <v type="int" >       13 </v>
   <v type="int" >       14 </v>
   <v type="int" >       15 </v>
   <v type="int" >       16 </v>
   <v type="int" >       17 </v>
   <v type="int" >       18 </v>
   <v type="int" >       19 </v>
   <v type="int" >       20 </v>
   <v type="int" >       21 </v>
   <v type="int" >       22 </v>
   <v type="int" >       23 </v>
   <v type="int" >       24 </v>
  </varray>
 </primitive_cell>
 <kpoints>
  <generation param="Gamma">
   <v type="int" name="divisions">       6       21        4 </v>
   <v name="usershift">      0.00000000       0.00000000       0.00000000 </v>
   <v name="genvec1">      0.16666667       0.00000000       0.00000000 </v>
   <v name="genvec2">     -0.00000000       0.04761905       0.00000000 </v>
   <v name="genvec3">      0.00000000       0.00000000       0.25000000 </v>
   <v name="shift">      0.00000000       0.00000000       0.00000000 </v>
  </generation>
  <varray name="kpointlist" >
   <v>       0.00000000       0.00000000       0.00000000 </v>
   <v>       0.16666667       0.00000000       0.00000000 </v>
   <v>       0.33333333       0.00000000       0.00000000 </v>
   <v>       0.50000000       0.00000000       0.00000000 </v>
   <v>       0.00000000       0.04761905       0.00000000 </v>
   <v>       0.16666667       0.04761905       0.00000000 </v>
   <v>      -0.16666667       0.04761905       0.00000000 </v>
   <v>       0.33333333       0.04761905       0.00000000 </v>
   <v>      -0.33333333       0.04761905       0.00000000 </v>
   <v>       0.50000000       0.04761905       0.00000000 </v>
   <v>       0.00000000       0.09523810       0.00000000 </v>
   <v>       0.16666667       0.09523810       0.00000000 </v>
   <v>      -0.16666667       0.09523810       0.00000000 </v>
   <v>       0.33333333       0.09523810       0.00000000 </v>
   <v>      -0.33333333       0.09523810       0.00000000 </v>
   <v>       0.50000000       0.09523810       0.00000000 </v>
   <v>       0.00000000       0.14285714       0.00000000 </v>
   <v>       0.16666667       0.14285714       0.00000000 </v>
   <v>      -0.16666667       0.14285714       0.00000000 </v>
   <v>       0.33333333       0.14285714       0.00000000 </v>
   <v>      -0.33333333       0.14285714       0.00000000 </v>
   <v>       0.50000000       0.14285714       0.00000000 </v>
   <v>       0.00000000       0.19047619       0.00000000 </v>
   <v>       0.16666667       0.19047619       0.00000000 </v>
   <v>      -0.16666667       0.19047619       0.00000000 </v>
   <v>       0.33333333       0.19047619       0.00000000 </v>
   <v>      -0.33333333       0.19047619       0.00000000 </v>
   <v>       0.50000000       0.19047619       0.00000000 </v>
   <v>       0.00000000       0.23809524       0.00000000 </v>
   <v>       0.16666667       0.23809524       0.00000000 </v>
   <v>      -0.16666667       0.23809524       0.00000000 </v>
   <v>       0.33333333       0.23809524       0.00000000 </v>
   <v>      -0.33333333       0.23809524       0.00000000 </v>
   <v>       0.50000000       0.23809524       0.00000000 </v>
   <v>       0.00000000       0.28571429       0.00000000 </v>
   <v>       0.16666667       0.28571429       0.00000000 </v>
   <v>      -0.16666667       0.28571429       0.00000000 </v>
   <v>       0.33333333       0.28571429       0.00000000 </v>
   <v>      -0.33333333       0.28571429       0.00000000 </v>
   <v>       0.50000000       0.28571429       0.00000000 </v>
   <v>       0.00000000       0.33333333       0.00000000 </v>
   <v>       0.16666667       0.33333333       0.00000000 </v>
   <v>      -0.16666667       0.33333333       0.00000000 </v>
   <v>       0.33333333       0.33333333       0.00000000 </v>
   <v>      -0.33333333       0.33333333       0.00000000 </v>
   <v>       0.50000000       0.33333333       0.00000000 </v>
   <v>       0.00000000       0.38095238       0.00000000 </v>
   <v>       0.16666667       0.38095238       0.00000000 </v>
   <v>      -0.16666667       0.38095238       0.00000000 </v>
   <v>       0.33333333       0.38095238       0.00000000 </v>
   <v>      -0.33333333       0.38095238       0.00000000 </v>
   <v>       0.50000000       0.38095238       0.00000000 </v>
   <v>       0.00000000       0.42857143       0.00000000 </v>
   <v>       0.16666667       0.42857143       0.00000000 </v>
   <v>      -0.16666667       0.42857143       0.00000000 </v>
   <v>       0.33333333       0.42857143       0.00000000 </v>
   <v>      -0.33333333       0.42857143       0.00000000 </v>
   <v>       0.50000000       0.42857143       0.00000000 </v>
   <v>       0.00000000       0.47619048       0.00000000 </v>
   <v>       0.16666667       0.47619048       0.00000000 </v>
   <v>      -0.16666667       0.47619048       0.00000000 </v>
   <v>       0.33333333       0.47619048       0.00000000 </v>
   <v>      -0.33333333       0.47619048       0.00000000 </v>
   <v>       0.50000000       0.47619048       0.00000000 </v>
   <v>       0.00000000       0.00000000       0.25000000 </v>
   <v>       0.16666667       0.00000000       0.25000000 </v>
   <v>       0.16666667       0.00000000      -0.25000000 </v>
   <v>       0.33333333       0.00000000       0.25000000 </v>
   <v>       0.33333333       0.00000000      -0.25000000 </v>
   <v>       0.50000000       0.00000000       0.25000000 </v>
   <v>       0.00000000       0.04761905       0.25000000 </v>
   <v>       0.00000000       0.04761905      -0.25000000 </v>
   <v>       0.16666667       0.04761905       0.25000000 </v>
   <v>      -0.16666667       0.04761905      -0.25000000 </v>
   <v>       0.16666667      -0.04761905      -0.25000000 </v>
   <v>      -0.16666667      -0.04761905       0.25000000 </v>
   <v>       0.33333333       0.04761905       0.25000000 </v>
   <v>      -0.33333333       0.04761905      -0.25000000 </v>
   <v>       0.33333333      -0.04761905      -0.25000000 </v>
   <v>      -0.33333333      -0.04761905       0.25000000 </v>
   <v>       0.50000000       0.04761905       0.25000000 </v>
   <v>       0.50000000       0.04761905      -0.25000000 </v>
   <v>       0.00000000       0.09523810       0.25000000 </v>
   <v>       0.00000000       0.09523810      -0.25000000 </v>
   <v>       0.16666667       0.09523810       0.25000000 </v>
   <v>      -0.16666667       0.09523810      -0.25000000 </v>
   <v>       0.16666667      -0.09523810      -0.25000000 </v>
   <v>      -0.16666667      -0.09523810       0.25000000 </v>
   <v>       0.33333333       0.09523810       0.25000000 </v>
   <v>      -0.33333333       0.09523810      -0.25000000 </v>
   <v>       0.33333333      -0.09523810      -0.25000000 </v>
   <v>      -0.33333333      -0.09523810       0.25000000 </v>
   <v>       0.50000000       0.09523810       0.25000000 </v>
   <v>       0.50000000       0.09523810      -0.25000000 </v>
   <v>       0.00000000       0.14285714       0.25000000 </v>
   <v>       0.00000000       0.14285714      -0.25000000 </v>
   <v>       0.16666667       0.14285714       0.25000000 </v>
   <v>      -0.16666667       0.14285714      -0.25000000 </v>
   <v>       0.16666667      -0.14285714      -0.25000000 </v>
   <v>      -0.16666667      -0.14285714       0.25000000 </v>
   <v>       0.33333333       0.14285714       0.25000000 </v>
   <v>      -0.33333333       0.14285714      -0.25000000 </v>
   <v>       0.33333333      -0.14285714      -0.25000000 </v>
   <v>      -0.33333333      -0.14285714       0.25000000 </v>
   <v>       0.50000000       0.14285714       0.25000000 </v>
   <v>       0.50000000       0.14285714      -0.25000000 </v>
   <v>       0.00000000       0.19047619       0.25000000 </v>
   <v>       0.00000000       0.19047619      -0.25000000 </v>
   <v>       0.16666667       0.19047619       0.25000000 </v>
   <v>      -0.16666667       0.19047619      -0.25000000 </v>
   <v>       0.16666667      -0.19047619      -0.25000000 </v>
   <v>      -0.16666667      -0.19047619       0.25000000 </v>
   <v>       0.33333333       0.19047619       0.25000000 </v>
   <v>      -0.33333333       0.19047619      -0.25000000 </v>
   <v>       0.33333333      -0.19047619      -0.25000000 </v>
   <v>      -0.33333333      -0.19047619       0.25000000 </v>
   <v>       0.50000000       0.19047619       0.25000000 </v>
   <v>       0.50000000       0.19047619      -0.25000000 </v>
   <v>       0.00000000       0.23809524       0.25000000 </v>
   <v>       0.00000000       0.23809524      -0.25000000 </v>
   <v>       0.16666667       0.23809524       0.25000000 </v>
   <v>      -0.16666667       0.23809524      -0.25000000 </v>
   <v>       0.16666667      -0.23809524      -0.25000000 </v>
   <v>      -0.16666667      -0.23809524       0.25000000 </v>
   <v>       0.33333333       0.23809524       0.25000000 </v>
   <v>      -0.33333333       0.23809524      -0.25000000 </v>
   <v>       0.33333333      -0.23809524      -0.25000000 </v>
   <v>      -0.33333333      -0.23809524       0.25000000 </v>
   <v>       0.50000000       0.23809524       0.25000000 </v>
   <v>       0.50000000       0.23809524      -0.25000000 </v>
   <v>       0.00000000       0.28571429       0.25000000 </v>
   <v>       0.00000000       0.28571429      -0.25000000 </v>
   <v>       0.16666667       0.28571429       0.25000000 </v>
   <v>      -0.16666667       0.28571429      -0.25000000 </v>
   <v>       0.16666667      -0.28571429      -0.25000000 </v>
   <v>      -0.16666667      -0.28571429       0.25000000 </v>
   <v>       0.33333333       0.28571429       0.25000000 </v>
   <v>      -0.33333333       0.28571429      -0.25000000 </v>
   <v>       0.33333333      -0.28571429      -0.25000000 </v>
   <v>      -0.33333333      -0.28571429       0.25000000 </v>
   <v>       0.50000000       0.28571429       0.25000000 </v>
   <v>       0.50000000       0.28571429      -0.25000000 </v>
   <v>       0.00000000       0.33333333       0.25000000 </v>
   <v>       0.00000000       0.33333333      -0.25000000 </v>
   <v>       0.16666667       0.33333333       0.25000000 </v>
   <v>      -0.16666667       0.33333333      -0.25000000 </v>
   <v>       0.16666667      -0.33333333      -0.25000000 </v>
   <v>      -0.16666667      -0.33333333       0.25000000 </v>
   <v>       0.33333333       0.33333333       0.25000000 </v>
   <v>      -0.33333333       0.33333333      -0.25000000 </v>
   <v>       0.33333333      -0.33333333      -0.25000000 </v>
   <v>      -0.33333333      -0.33333333       0.25000000 </v>
   <v>       0.50000000       0.33333333       0.25000000 </v>
   <v>       0.50000000       0.33333333      -0.25000000 </v>
   <v>       0.00000000       0.38095238       0.25000000 </v>
   <v>       0.00000000       0.38095238      -0.25000000 </v>
   <v>       0.16666667       0.38095238       0.25000000 </v>
   <v>      -0.16666667       0.38095238      -0.25000000 </v>
   <v>       0.16666667      -0.38095238      -0.25000000 </v>
   <v>      -0.16666667      -0.38095238       0.25000000 </v>
   <v>       0.33333333       0.38095238       0.25000000 </v>
   <v>      -0.33333333       0.38095238      -0.25000000 </v>
   <v>       0.33333333      -0.38095238      -0.25000000 </v>
   <v>      -0.33333333      -0.38095238       0.25000000 </v>
   <v>       0.50000000       0.38095238       0.25000000 </v>
   <v>       0.50000000       0.38095238      -0.25000000 </v>
   <v>       0.00000000       0.42857143       0.25000000 </v>
   <v>       0.00000000       0.42857143      -0.25000000 </v>
   <v>       0.16666667       0.42857143       0.25000000 </v>
   <v>      -0.16666667       0.42857143      -0.25000000 </v>
   <v>       0.16666667      -0.42857143      -0.25000000 </v>
   <v>      -0.16666667      -0.42857143       0.25000000 </v>
   <v>       0.33333333       0.42857143       0.25000000 </v>
   <v>      -0.33333333       0.42857143      -0.25000000 </v>
   <v>       0.33333333      -0.42857143      -0.25000000 </v>
   <v>      -0.33333333      -0.42857143       0.25000000 </v>
   <v>       0.50000000       0.42857143       0.25000000 </v>
   <v>       0.50000000       0.42857143      -0.25000000 </v>
   <v>       0.00000000       0.47619048       0.25000000 </v>
   <v>       0.00000000       0.47619048      -0.25000000 </v>
   <v>       0.16666667       0.47619048       0.25000000 </v>
   <v>      -0.16666667       0.47619048      -0.25000000 </v>
   <v>       0.16666667      -0.47619048      -0.25000000 </v>
   <v>      -0.16666667      -0.47619048       0.25000000 </v>
   <v>       0.33333333       0.47619048       0.25000000 </v>
   <v>      -0.33333333       0.47619048      -0.25000000 </v>
   <v>       0.33333333      -0.47619048      -0.25000000 </v>
   <v>      -0.33333333      -0.47619048       0.25000000 </v>
   <v>       0.50000000       0.47619048       0.25000000 </v>
   <v>       0.50000000       0.47619048      -0.25000000 </v>
   <v>       0.00000000       0.00000000       0.50000000 </v>
   <v>       0.16666667       0.00000000       0.50000000 </v>
   <v>       0.33333333       0.00000000       0.50000000 </v>
   <v>       0.50000000       0.00000000       0.50000000 </v>
   <v>       0.00000000       0.04761905       0.50000000 </v>
   <v>       0.16666667       0.04761905       0.50000000 </v>
   <v>      -0.16666667       0.04761905       0.50000000 </v>
   <v>       0.33333333       0.04761905       0.50000000 </v>
   <v>      -0.33333333       0.04761905       0.50000000 </v>
   <v>       0.50000000       0.04761905       0.50000000 </v>
   <v>       0.00000000       0.09523810       0.50000000 </v>
   <v>       0.16666667       0.09523810       0.50000000 </v>
   <v>      -0.16666667       0.09523810       0.50000000 </v>
   <v>       0.33333333       0.09523810       0.50000000 </v>
   <v>      -0.33333333       0.09523810       0.50000000 </v>
   <v>       0.50000000       0.09523810       0.50000000 </v>
   <v>       0.00000000       0.14285714       0.50000000 </v>
   <v>       0.16666667       0.14285714       0.50000000 </v>
   <v>      -0.16666667       0.14285714       0.50000000 </v>
   <v>       0.33333333       0.14285714       0.50000000 </v>
   <v>      -0.33333333       0.14285714       0.50000000 </v>
   <v>       0.50000000       0.14285714       0.50000000 </v>
   <v>       0.00000000       0.19047619       0.50000000 </v>
   <v>       0.16666667       0.19047619       0.50000000 </v>
   <v>      -0.16666667       0.19047619       0.50000000 </v>
   <v>       0.33333333       0.19047619       0.50000000 </v>
   <v>      -0.33333333       0.19047619       0.50000000 </v>
   <v>       0.50000000       0.19047619       0.50000000 </v>
   <v>       0.00000000       0.23809524       0.50000000 </v>
   <v>       0.16666667       0.23809524       0.50000000 </v>
   <v>      -0.16666667       0.23809524       0.50000000 </v>
   <v>       0.33333333       0.23809524       0.50000000 </v>
   <v>      -0.33333333       0.23809524       0.50000000 </v>
   <v>       0.50000000       0.23809524       0.50000000 </v>
   <v>       0.00000000       0.28571429       0.50000000 </v>
   <v>       0.16666667       0.28571429       0.50000000 </v>
   <v>      -0.16666667       0.28571429       0.50000000 </v>
   <v>       0.33333333       0.28571429       0.50000000 </v>
   <v>      -0.33333333       0.28571429       0.50000000 </v>
   <v>       0.50000000       0.28571429       0.50000000 </v>
   <v>       0.00000000       0.33333333       0.50000000 </v>
   <v>       0.16666667       0.33333333       0.50000000 </v>
   <v>      -0.16666667       0.33333333       0.50000000 </v>
   <v>       0.33333333       0.33333333       0.50000000 </v>
   <v>      -0.33333333       0.33333333       0.50000000 </v>
   <v>       0.50000000       0.33333333       0.50000000 </v>
   <v>       0.00000000       0.38095238       0.50000000 </v>
   <v>       0.16666667       0.38095238       0.50000000 </v>
   <v>      -0.16666667       0.38095238       0.50000000 </v>
   <v>       0.33333333       0.38095238       0.50000000 </v>
   <v>      -0.33333333       0.38095238       0.50000000 </v>
   <v>       0.50000000       0.38095238       0.50000000 </v>
   <v>       0.00000000       0.42857143       0.50000000 </v>
   <v>       0.16666667       0.42857143       0.50000000 </v>
   <v>      -0.16666667       0.42857143       0.50000000 </v>
   <v>       0.33333333       0.42857143       0.50000000 </v>
   <v>      -0.33333333       0.42857143       0.50000000 </v>
   <v>       0.50000000       0.42857143       0.50000000 </v>
   <v>       0.00000000       0.47619048       0.50000000 </v>
   <v>       0.16666667       0.47619048       0.50000000 </v>
   <v>      -0.16666667       0.47619048       0.50000000 </v>
   <v>       0.33333333       0.47619048       0.50000000 </v>
   <v>      -0.33333333       0.47619048       0.50000000 </v>
   <v>       0.50000000       0.47619048       0.50000000 </v>
  </varray>
  <varray name="weights" >
   <v>       0.00198413 </v>
   <v>       0.00396825 </v>
   <v>       0.00396825 </v>
   <v>       0.00198413 </v>
   <v>       0.00396825 </v>
   <v>       0.00396825 </v>
   <v>       0.00396825 </v>
   <v>       0.00396825 </v>
   <v>       0.00396825 </v>
   <v>       0.00396825 </v>
   <v>       0.00396825 </v>
   <v>       0.00396825 </v>
   <v>       0.00396825 </v>
   <v>       0.00396825 </v>
   <v>       0.00396825 </v>
   <v>       0.00396825 </v>
   <v>       0.00396825 </v>
   <v>       0.00396825 </v>
   <v>       0.00396825 </v>
   <v>       0.00396825 </v>
   <v>       0.00396825 </v>
   <v>       0.00396825 </v>
   <v>       0.00396825 </v>
   <v>       0.00396825 </v>
   <v>       0.00396825 </v>
   <v>       0.00396825 </v>
   <v>       0.00396825 </v>
   <v>       0.00396825 </v>
   <v>       0.00396825 </v>
   <v>       0.00396825 </v>
   <v>       0.00396825 </v>
   <v>       0.00396825 </v>
   <v>       0.00396825 </v>
   <v>       0.00396825 </v>
   <v>       0.00396825 </v>
   <v>       0.00396825 </v>
   <v>       0.00396825 </v>
   <v>       0.00396825 </v>
   <v>       0.00396825 </v>
   <v>       0.00396825 </v>
   <v>       0.00396825 </v>
   <v>       0.00396825 </v>
   <v>       0.00396825 </v>
   <v>       0.00396825 </v>
   <v>       0.00396825 </v>
   <v>       0.00396825 </v>
   <v>       0.00396825 </v>
   <v>       0.00396825 </v>
   <v>       0.00396825 </v>
   <v>       0.00396825 </v>
   <v>       0.00396825 </v>
   <v>       0.00396825 </v>
   <v>       0.00396825 </v>
   <v>       0.00396825 </v>
   <v>       0.00396825 </v>
   <v>       0.00396825 </v>
   <v>       0.00396825 </v>
   <v>       0.00396825 </v>
   <v>       0.00396825 </v>
   <v>       0.00396825 </v>
   <v>       0.00396825 </v>
   <v>       0.00396825 </v>
   <v>       0.00396825 </v>
   <v>       0.00396825 </v>
   <v>       0.00396825 </v>
   <v>       0.00396825 </v>
   <v>       0.00396825 </v>
   <v>       0.00396825 </v>
   <v>       0.00396825 </v>
   <v>       0.00396825 </v>
   <v>       0.00396825 </v>
   <v>       0.00396825 </v>
   <v>       0.00396825 </v>
   <v>       0.00396825 </v>
   <v>       0.00396825 </v>
   <v>       0.00396825 </v>
   <v>       0.00396825 </v>
   <v>       0.00396825 </v>
   <v>       0.00396825 </v>
   <v>       0.00396825 </v>
   <v>       0.00396825 </v>
   <v>       0.00396825 </v>
   <v>       0.00396825 </v>
   <v>       0.00396825 </v>
   <v>       0.00396825 </v>
   <v>       0.00396825 </v>
   <v>       0.00396825 </v>
   <v>       0.00396825 </v>
   <v>       0.00396825 </v>
   <v>       0.00396825 </v>
   <v>       0.00396825 </v>
   <v>       0.00396825 </v>
   <v>       0.00396825 </v>
   <v>       0.00396825 </v>
   <v>       0.00396825 </v>
   <v>       0.00396825 </v>
   <v>       0.00396825 </v>
   <v>       0.00396825 </v>
   <v>       0.00396825 </v>
   <v>       0.00396825 </v>
   <v>       0.00396825 </v>
   <v>       0.00396825 </v>
   <v>       0.00396825 </v>
   <v>       0.00396825 </v>
   <v>       0.00396825 </v>
   <v>       0.00396825 </v>
   <v>       0.00396825 </v>
   <v>       0.00396825 </v>
   <v>       0.00396825 </v>
   <v>       0.00396825 </v>
   <v>       0.00396825 </v>
   <v>       0.00396825 </v>
   <v>       0.00396825 </v>
   <v>       0.00396825 </v>
   <v>       0.00396825 </v>
   <v>       0.00396825 </v>
   <v>       0.00396825 </v>
   <v>       0.00396825 </v>
   <v>       0.00396825 </v>
   <v>       0.00396825 </v>
   <v>       0.00396825 </v>
   <v>       0.00396825 </v>
   <v>       0.00396825 </v>
   <v>       0.00396825 </v>
   <v>       0.00396825 </v>
   <v>       0.00396825 </v>
   <v>       0.00396825 </v>
   <v>       0.00396825 </v>
   <v>       0.00396825 </v>
   <v>       0.00396825 </v>
   <v>       0.00396825 </v>
   <v>       0.00396825 </v>
   <v>       0.00396825 </v>
   <v>       0.00396825 </v>
   <v>       0.00396825 </v>
   <v>       0.00396825 </v>
   <v>       0.00396825 </v>
   <v>       0.00396825 </v>
   <v>       0.00396825 </v>
   <v>       0.00396825 </v>
   <v>       0.00396825 </v>
   <v>       0.00396825 </v>
   <v>       0.00396825 </v>
   <v>       0.00396825 </v>
   <v>       0.00396825 </v>
   <v>       0.00396825 </v>
   <v>       0.00396825 </v>
   <v>       0.00396825 </v>
   <v>       0.00396825 </v>
   <v>       0.00396825 </v>
   <v>       0.00396825 </v>
   <v>       0.00396825 </v>
   <v>       0.00396825 </v>
   <v>       0.00396825 </v>
   <v>       0.00396825 </v>
   <v>       0.00396825 </v>
   <v>       0.00396825 </v>
   <v>       0.00396825 </v>
   <v>       0.00396825 </v>
   <v>       0.00396825 </v>
   <v>       0.00396825 </v>
   <v>       0.00396825 </v>
   <v>       0.00396825 </v>
   <v>       0.00396825 </v>
   <v>       0.00396825 </v>
   <v>       0.00396825 </v>
   <v>       0.00396825 </v>
   <v>       0.00396825 </v>
   <v>       0.00396825 </v>
   <v>       0.00396825 </v>
   <v>       0.00396825 </v>
   <v>       0.00396825 </v>
   <v>       0.00396825 </v>
   <v>       0.00396825 </v>
   <v>       0.00396825 </v>
   <v>       0.00396825 </v>
   <v>       0.00396825 </v>
   <v>       0.00396825 </v>
   <v>       0.00396825 </v>
   <v>       0.00396825 </v>
   <v>       0.00396825 </v>
   <v>       0.00396825 </v>
   <v>       0.00396825 </v>
   <v>       0.00396825 </v>
   <v>       0.00396825 </v>
   <v>       0.00396825 </v>
   <v>       0.00396825 </v>
   <v>       0.00396825 </v>
   <v>       0.00396825 </v>
   <v>       0.00396825 </v>
   <v>       0.00198413 </v>
   <v>       0.00396825 </v>
   <v>       0.00396825 </v>
   <v>       0.00198413 </v>
   <v>       0.00396825 </v>
   <v>       0.00396825 </v>
   <v>       0.00396825 </v>
   <v>       0.00396825 </v>
   <v>       0.00396825 </v>
   <v>       0.00396825 </v>
   <v>       0.00396825 </v>
   <v>       0.00396825 </v>
   <v>       0.00396825 </v>
   <v>       0.00396825 </v>
   <v>       0.00396825 </v>
   <v>       0.00396825 </v>
   <v>       0.00396825 </v>
   <v>       0.00396825 </v>
   <v>       0.00396825 </v>
   <v>       0.00396825 </v>
   <v>       0.00396825 </v>
   <v>       0.00396825 </v>
   <v>       0.00396825 </v>
   <v>       0.00396825 </v>
   <v>       0.00396825 </v>
   <v>       0.00396825 </v>
   <v>       0.00396825 </v>
   <v>       0.00396825 </v>
   <v>       0.00396825 </v>
   <v>       0.00396825 </v>
   <v>       0.00396825 </v>
   <v>       0.00396825 </v>
   <v>       0.00396825 </v>
   <v>       0.00396825 </v>
   <v>       0.00396825 </v>
   <v>       0.00396825 </v>
   <v>       0.00396825 </v>
   <v>       0.00396825 </v>
   <v>       0.00396825 </v>
   <v>       0.00396825 </v>
   <v>       0.00396825 </v>
   <v>       0.00396825 </v>
   <v>       0.00396825 </v>
   <v>       0.00396825 </v>
   <v>       0.00396825 </v>
   <v>       0.00396825 </v>
   <v>       0.00396825 </v>
   <v>       0.00396825 </v>
   <v>       0.00396825 </v>
   <v>       0.00396825 </v>
   <v>       0.00396825 </v>
   <v>       0.00396825 </v>
   <v>       0.00396825 </v>
   <v>       0.00396825 </v>
   <v>       0.00396825 </v>
   <v>       0.00396825 </v>
   <v>       0.00396825 </v>
   <v>       0.00396825 </v>
   <v>       0.00396825 </v>
   <v>       0.00396825 </v>
   <v>       0.00396825 </v>
   <v>       0.00396825 </v>
   <v>       0.00396825 </v>
   <v>       0.00396825 </v>
  </varray>
 </kpoints>
 <parameters>
  <separator name="general" >
   <i type="string" name="SYSTEM">unknown system</i>
   <i type="logical" name="LCOMPAT"> F  </i>
  </separator>
  <separator name="electronic" >
   <i type="string" name="PREC">accura</i>
   <i name="ENMAX">    900.00000000</i>
   <i name="ENAUG">   1514.19200000</i>
   <i name="EDIFF">      0.00000010</i>
   <i type="int" name="IALGO">    38</i>
   <i type="int" name="IWAVPR">    10</i>
   <i type="int" name="NBANDS">    40</i>
   <i type="int" name="NBANDSLOW">    -1</i>
   <i type="int" name="NBANDSHIGH">    -1</i>
   <i name="NELECT">     48.00000000</i>
   <i type="int" name="TURBO">     0</i>
   <i type="int" name="IRESTART">     0</i>
   <i type="int" name="NREBOOT">     0</i>
   <i type="int" name="NMIN">     0</i>
   <i name="EREF">      0.00000000</i>
   <separator name="electronic smearing" >
    <i type="int" name="ISMEAR">     0</i>
    <i name="SIGMA">      0.01000000</i>
    <i name="KSPACING">      0.50000000</i>
    <i type="logical" name="KGAMMA"> T  </i>
    <i type="logical" name="KBLOWUP"> T  </i>
   </separator>
   <separator name="electronic projectors" >
    <i type="logical" name="LREAL"> F  </i>
    <v name="ROPT">      0.00000000</v>
    <i type="int" name="LMAXPAW">  -100</i>
    <i type="int" name="LMAXMIX">     2</i>
    <i type="logical" name="NLSPLINE"> F  </i>
   </separator>
   <separator name="electronic startup" >
    <i type="int" name="ISTART">     0</i>
    <i type="int" name="ICHARG">     2</i>
    <i type="int" name="INIWAV">     1</i>
   </separator>
   <separator name="electronic spin" >
    <i type="int" name="ISPIN">     1</i>
    <i type="logical" name="LNONCOLLINEAR"> F  </i>
    <v name="MAGMOM">      1.00000000      1.00000000      1.00000000      1.00000000      1.00000000      1.00000000      1.00000000      1.00000000      1.00000000      1.00000000      1.00000000      1.00000000      1.00000000      1.00000000      1.00000000      1.00000000      1.00000000      1.00000000      1.00000000      1.00000000
      1.00000000      1.00000000      1.00000000      1.00000000</v>
    <i name="NUPDOWN">     -1.00000000</i>
    <i type="logical" name="LSORBIT"> F  </i>
    <v name="SAXIS">      0.00000000      0.00000000      1.00000000</v>
    <i type="logical" name="LSPIRAL"> F  </i>
    <v name="QSPIRAL">      0.00000000      0.00000000      0.00000000</v>
    <i type="logical" name="LZEROZ"> F  </i>
   </separator>
   <separator name="electronic exchange-correlation" >
    <i type="logical" name="LASPH"> F  </i>
   </separator>
   <separator name="electronic convergence" >
    <i type="int" name="NELM">    60</i>
    <i type="int" name="NELMDL">    -5</i>
    <i type="int" name="NELMIN">     2</i>
    <i name="ENINI">    900.00000000</i>
    <separator name="electronic convergence detail" >
     <i type="logical" name="LDIAG"> T  </i>
     <i type="logical" name="LSUBROT"> F  </i>
     <i name="WEIMIN">      0.00000000</i>
     <i name="EBREAK">      0.00000000</i>
     <i name="DEPER">      0.30000000</i>
     <i type="int" name="NRMM">     4</i>
     <i name="TIME">      0.40000000</i>
    </separator>
   </separator>
   <separator name="electronic mixer" >
    <i name="AMIX">      0.40000000</i>
    <i name="BMIX">      1.00000000</i>
    <i name="AMIN">      0.10000000</i>
    <i name="AMIX_MAG">      1.60000000</i>
    <i name="BMIX_MAG">      1.00000000</i>
    <separator name="electronic mixer details" >
     <i type="int" name="IMIX">     4</i>
     <i type="logical" name="MIXFIRST"> F  </i>
     <i type="int" name="MAXMIX">   -45</i>
     <i name="WC">    100.00000000</i>
     <i type="int" name="INIMIX">     1</i>
     <i type="int" name="MIXPRE">     1</i>
     <i type="int" name="MREMOVE">     5</i>
    </separator>
   </separator>
   <separator name="electronic dipolcorrection" >
    <i type="logical" name="LDIPOL"> F  </i>
    <i type="logical" name="LMONO"> F  </i>
    <i type="int" name="IDIPOL">     0</i>
    <i name="EPSILON">      1.00000000</i>
    <v name="DIPOL">   -100.00000000   -100.00000000   -100.00000000</v>
    <i name="EFIELD">      0.00000000</i>
    <i type="logical" name="LVACPOTAV"> F  </i>
   </separator>
  </separator>
  <separator name="grids" >
   <i type="int" name="NGX">    70</i>
   <i type="int" name="NGY">    20</i>
   <i type="int" name="NGZ">    96</i>
   <i type="int" name="NGXF">   140</i>
   <i type="int" name="NGYF">    40</i>
   <i type="int" name="NGZF">   192</i>
   <i type="logical" name="ADDGRID"> F  </i>
  </separator>
  <separator name="ionic" >
   <i type="int" name="NSW">     0</i>
   <i type="int" name="IBRION">    -1</i>
   <i type="int" name="MDALGO">     0</i>
   <i type="int" name="ISIF">     2</i>
   <i name="PSTRESS">      0.00000000</i>
   <i name="EDIFFG">      0.00000100</i>
   <i type="int" name="NFREE">     0</i>
   <i name="POTIM">      0.50000000</i>
   <i name="SMASS">     -3.00000000</i>
   <i name="SCALEE">      1.00000000</i>
  </separator>
  <separator name="ionic md" >
   <i name="TEBEG">      0.00010000</i>
   <i name="TEEND">      0.00010000</i>
   <i type="int" name="NBLOCK">     1</i>
   <i type="int" name="KBLOCK">     1</i>
   <i type="int" name="NPACO">   256</i>
   <i name="APACO">     10.00000000</i>
  </separator>
  <separator name="symmetry" >
   <i type="int" name="ISYM">     2</i>
   <i name="SYMPREC">      0.00001000</i>
  </separator>
  <separator name="dos" >
   <i type="int" name="LORBIT">     0</i>
   <v name="RWIGS">     -1.00000000</v>
   <i type="int" name="NEDOS">   301</i>
   <i name="EMIN">     10.00000000</i>
   <i name="EMAX">    -10.00000000</i>
   <i name="EFERMI">      0.00000000</i>
  </separator>
  <separator name="writing" >
   <i type="int" name="NWRITE">     2</i>
   <i type="logical" name="LWAVE"> F  </i>
   <i type="logical" name="LDOWNSAMPLE"> F  </i>
   <i type="logical" name="LCHARG"> F  </i>
   <i type="logical" name="LPARD"> F  </i>
   <i type="logical" name="LVTOT"> F  </i>
   <i type="logical" name="LVHAR"> F  </i>
   <i type="logical" name="LELF"> F  </i>
   <i type="logical" name="LOPTICS"> F  </i>
   <v name="STM">      0.00000000      0.00000000      0.00000000      0.00000000      0.00000000      0.00000000      0.00000000</v>
  </separator>
  <separator name="performance" >
   <i type="int" name="NPAR">     4</i>
   <i type="int" name="NSIM">     4</i>
   <i type="int" name="NBLK">    -1</i>
   <i type="logical" name="LPLANE"> T  </i>
   <i type="logical" name="LSCALAPACK"> T  </i>
   <i type="logical" name="LSCAAWARE"> F  </i>
   <i type="logical" name="LSCALU"> F  </i>
   <i type="logical" name="LASYNC"> F  </i>
   <i type="logical" name="LORBITALREAL"> F  </i>
  </separator>
  <separator name="miscellaneous" >
   <i type="int" name="IDIOT">     3</i>
   <i type="int" name="PHON_NSTRUCT">    -1</i>
   <i type="logical" name="LMUSIC"> F  </i>
   <v name="POMASS">      4.00000000</v>
   <v name="DARWINR">      0.00000000</v>
   <v name="DARWINV">      1.00000000</v>
   <i type="logical" name="LCORR"> T  </i>
  </separator>
  <i type="logical" name="GGA_COMPAT"> T  </i>
  <i type="logical" name="LBERRY"> F  </i>
  <i type="int" name="ICORELEVEL">     0</i>
  <i type="logical" name="LDAU"> F  </i>
  <i type="int" name="I_CONSTRAINED_M">     0</i>
  <separator name="electronic exchange-correlation" >
   <i type="string" name="GGA    ">PE</i>
   <i type="string" name="XC_C">1</i>
   <i type="int" name="VOSKOWN">     0</i>
   <i type="logical" name="LHFCALC"> F  </i>
   <i type="string" name="PRECFOCK"></i>
   <i type="logical" name="LSYMGRAD"> F  </i>
   <i type="logical" name="LHFONE"> F  </i>
   <i type="logical" name="LRHFCALC"> F  </i>
   <i type="logical" name="LTHOMAS"> F  </i>
   <i type="logical" name="LMODELHF"> F  </i>
   <i type="logical" name="LFOCKACE"> F  </i>
   <i name="ENCUT4O">     -1.00000000</i>
   <i type="int" name="EXXOEP">     0</i>
   <i type="int" name="FOURORBIT">     0</i>
   <i name="AEXX">      0.00000000</i>
   <i name="HFALPHA">      0.00000000</i>
   <i name="MCALPHA">      0.00000000</i>
   <i name="ALDAX">      1.00000000</i>
   <i name="AGGAX">      1.00000000</i>
   <i name="AMGGAX">      1.00000000</i>
   <i name="ALDAC">      1.00000000</i>
   <i name="AGGAC">      1.00000000</i>
   <i name="AMGGAC">      1.00000000</i>
   <i type="int" name="NKREDX">     1</i>
   <i type="int" name="NKREDY">     1</i>
   <i type="int" name="NKREDZ">     1</i>
   <i type="logical" name="SHIFTRED"> F  </i>
   <i type="logical" name="ODDONLY"> F  </i>
   <i type="logical" name="EVENONLY"> F  </i>
   <i type="int" name="LMAXFOCK">     0</i>
   <i type="int" name="NMAXFOCKAE">     0</i>
   <i type="logical" name="LFOCKAEDFT"> F  </i>
   <i name="HFSCREEN">      0.00000000</i>
   <i name="HFSCREENC">      0.00000000</i>
   <i type="int" name="NBANDSGWLOW">     0</i>
  </separator>
  <separator name="vdW DFT" >
   <i type="logical" name="LUSE_VDW"> F  </i>
   <i type="int" name="IVDW_NL">    -1</i>
   <i type="logical" name="LSPIN_VDW"> F  </i>
   <i name="ZAB_VDW">     -0.84910000</i>
   <i name="GAMMA_VDW">      1.39626340</i>
   <i name="ALPHA_VDW">      0.00000000</i>
   <i name="PARAM1">      0.12340000</i>
   <i name="PARAM2">      1.00000000</i>
   <i name="BPARAM">      6.30000000</i>
   <i name="CPARAM">      0.00930000</i>
  </separator>
  <separator name="model GW" >
   <i type="int" name="MODEL_GW">     0</i>
   <i name="MODEL_EPS0">      3.16308025</i>
   <i name="MODEL_ALPHA">      1.00000000</i>
  </separator>
  <separator name="linear response parameters" >
   <i type="logical" name="LEPSILON"> F  </i>
   <i type="logical" name="LRPA"> F  </i>
   <i type="logical" name="LNABLA"> F  </i>
   <i type="logical" name="LVEL"> F  </i>
   <i name="CSHIFT">      0.10000000</i>
   <i name="OMEGAMAX">     -1.00000000</i>
   <i name="DEG_THRESHOLD">      0.00200000</i>
   <i name="RTIME">     -0.10000000</i>
   <i name="WPLASMAI">      0.00000000</i>
   <v name="DFIELD">      0.00000000      0.00000000      0.00000000</v>
   <v name="WPLASMA">      0.00000000      0.00000000      0.00000000      0.00000000      0.00000000      0.00000000      0.00000000      0.00000000      0.00000000</v>
  </separator>
  <separator name="orbital magnetization" >
   <i type="logical" name="NUCIND"> F  </i>
   <v name="MAGPOS">      0.00000000      0.00000000      0.00000000</v>
   <i type="logical" name="LNICSALL"> T  </i>
   <i type="logical" name="ORBITALMAG"> F  </i>
   <i type="logical" name="LMAGBLOCH"> F  </i>
   <i type="logical" name="LCHIMAG"> F  </i>
   <i type="logical" name="LGAUGE"> T  </i>
   <i type="int" name="MAGATOM">     0</i>
   <v name="MAGDIPOL">      0.00000000      0.00000000      0.00000000</v>
   <v name="AVECCONST">      0.00000000      0.00000000      0.00000000</v>
  </separator>
  <separator name="response functions" >
   <i type="logical" name="LALL_IN_ONE"> F  </i>
   <i type="int" name="IALL_IN_ONE">    -1</i>
   <i type="int" name="NBANDS_WAVE">    -1</i>
   <i type="logical" name="LFINITE_TEMPERATURE"> F  </i>
   <i type="logical" name="LADDER"> F  </i>
   <i type="logical" name="LRPAFORCE"> F  </i>
   <i type="logical" name="LFXC"> F  </i>
   <i type="logical" name="LHARTREE"> T  </i>
   <i type="int" name="IBSE">     0</i>
   <v type="int" name="KPOINT">    -1     0     0     0</v>
   <i type="logical" name="LTCTC"> F  </i>
   <i type="logical" name="LTCTE"> F  </i>
   <i type="logical" name="LTETE"> F  </i>
   <i type="logical" name="LTRIPLET"> F  </i>
   <i type="logical" name="LFXCEPS"> F  </i>
   <i type="logical" name="LFXHEG"> F  </i>
   <i type="int" name="NATURALO">     2</i>
   <i type="logical" name="LHOLEGF"> F  </i>
   <i type="logical" name="L2ORDER"> F  </i>
   <i type="logical" name="LDMP1"> F  </i>
   <i type="logical" name="LMP2LT"> F  </i>
   <i type="logical" name="LSMP2LT"> F  </i>
   <i type="logical" name="LGWLF"> F  </i>
   <i name="ENCUTGW">     -1.60000002</i>
   <i name="ENCUTGWSOFT">     -1.60000002</i>
   <i name="ENCUTLF">     -1.00000000</i>
   <i type="logical" name="ESF_SPLINES"> F  </i>
   <i name="ESF_CONV">      0.01000000</i>
   <i type="int" name="ESF_NINTER">    15</i>
   <i type="int" name="LMAXMP2">    -1</i>
   <i name="SCISSOR">      0.00000000</i>
   <i type="int" name="NOMEGA">     0</i>
   <i type="int" name="NOMEGAR">     0</i>
   <i type="int" name="NBANDSGW">    -1</i>
   <i type="int" name="NBANDSO">    -1</i>
   <i type="int" name="NBANDSV">    -1</i>
   <i type="int" name="NELMGW">     1</i>
   <i type="int" name="NELMHF">     1</i>
   <i type="int" name="DIM">     3</i>
   <i type="int" name="IESPILON">     4</i>
   <i type="int" name="ANTIRES">     0</i>
   <i name="OMEGAMAX">    -30.00000000</i>
   <i name="OMEGAMIN">    -30.00000000</i>
   <i name="OMEGATL">   -200.00000000</i>
   <i type="int" name="OMEGAGRID">     0</i>
   <i name="CSHIFT">     -0.10000000</i>
   <i type="logical" name="LSELFENERGY"> F  </i>
   <i type="logical" name="LSPECTRAL"> F  </i>
   <i type="logical" name="LSPECTRALGW"> F  </i>
   <i type="logical" name="LSINGLES"> F  </i>
   <i type="logical" name="LFERMIGW"> F  </i>
   <i type="logical" name="ODDONLYGW"> F  </i>
   <i type="logical" name="EVENONLYGW"> F  </i>
   <i type="int" name="NKREDLFX">     1</i>
   <i type="int" name="NKREDLFY">     1</i>
   <i type="int" name="NKREDLFZ">     1</i>
   <i type="int" name="MAXMEM">  2800</i>
   <i type="int" name="TELESCOPE">     0</i>
   <i type="int" name="NTAUPAR">    -1</i>
   <i type="int" name="NOMEGAPAR">    -1</i>
   <i name="DAMP_NEWTON">      0.80000001</i>
   <i name="LAMBDA">      1.00000000</i>
  </separator>
  <separator name="External order field" >
   <i name="OFIELD_KAPPA">      0.00000000</i>
   <v name="OFIELD_K">      0.00000000      0.00000000      0.00000000</v>
   <i name="OFIELD_Q6_NEAR">      0.00000000</i>
   <i name="OFIELD_Q6_FAR">      0.00000000</i>
   <i name="OFIELD_A">      0.00000000</i>
  </separator>
  <separator name="optional k-points parameters" >
   <i type="int" name="KPOINTS_OPT_MODE">     1</i>
   <i type="logical" name="LKPOINTS_OPT"> F  </i>
  </separator>
 </parameters>
 <atominfo>
  <atoms>      24 </atoms>
  <types>       1 </types>
  <array name="atoms" >
   <dimension dim="1">ion</dimension>
   <field type="string">element</field>
   <field type="int">atomtype</field>
   <set>
    <rc><c>He</c><c>   1</c></rc>
    <rc><c>He</c><c>   1</c></rc>
    <rc><c>He</c><c>   1</c></rc>
    <rc><c>He</c><c>   1</c></rc>
    <rc><c>He</c><c>   1</c></rc>
    <rc><c>He</c><c>   1</c></rc>
    <rc><c>He</c><c>   1</c></rc>
    <rc><c>He</c><c>   1</c></rc>
    <rc><c>He</c><c>   1</c></rc>
    <rc><c>He</c><c>   1</c></rc>
    <rc><c>He</c><c>   1</c></rc>
    <rc><c>He</c><c>   1</c></rc>
    <rc><c>He</c><c>   1</c></rc>
    <rc><c>He</c><c>   1</c></rc>
    <rc><c>He</c><c>   1</c></rc>
    <rc><c>He</c><c>   1</c></rc>
    <rc><c>He</c><c>   1</c></rc>
    <rc><c>He</c><c>   1</c></rc>
    <rc><c>He</c><c>   1</c></rc>
    <rc><c>He</c><c>   1</c></rc>
    <rc><c>He</c><c>   1</c></rc>
    <rc><c>He</c><c>   1</c></rc>
    <rc><c>He</c><c>   1</c></rc>
    <rc><c>He</c><c>   1</c></rc>
   </set>
  </array>
  <array name="atomtypes" >
   <dimension dim="1">type</dimension>
   <field type="int">atomspertype</field>
   <field type="string">element</field>
   <field>mass</field>
   <field>valence</field>
   <field type="string">pseudopotential</field>
   <set>
    <rc><c>  24</c><c>He</c><c>      4.00000000</c><c>      2.00000000</c><c>  PAW_PBE He_GW 23Feb2015               </c></rc>
   </set>
  </array>
 </atominfo>
 <structure name="initialpos" >
  <crystal>
   <varray name="basis" >
    <v>       5.86288214       3.38493658       0.00000000 </v>
    <v>      -0.97714702       1.69246829       0.00000000 </v>
    <v>       0.00000000       0.00000000       9.56312345 </v>
   </varray>
   <i name="volume">    126.52321019 </i>
   <varray name="rec_basis" >
    <v>       0.12792343       0.07385663      -0.00000000 </v>
    <v>      -0.25584686       0.44313976       0.00000000 </v>
    <v>       0.00000000      -0.00000000       0.10456835 </v>
   </varray>
  </crystal>
  <varray name="positions" >
   <v>       0.08249149       0.49915816       0.08249149 </v>
   <v>       0.33333333       0.00000000       0.08333333 </v>
   <v>       0.58333333       0.50000000       0.08333333 </v>
   <v>       0.83333333       0.00000000       0.08333333 </v>
   <v>       0.08333333       0.50000000       0.41666667 </v>
   <v>       0.33333333       0.00000000       0.41666667 </v>
   <v>       0.58333333       0.50000000       0.41666667 </v>
   <v>       0.83333333       0.00000000       0.41666667 </v>
   <v>       0.08333333       0.50000000       0.75000000 </v>
   <v>       0.33333333       0.00000000       0.75000000 </v>
   <v>       0.58333333       0.50000000       0.75000000 </v>
   <v>       0.83333333       0.00000000       0.75000000 </v>
   <v>       0.16666667       0.00000000       0.25000000 </v>
   <v>       0.41666667       0.50000000       0.25000000 </v>
   <v>       0.66666667       0.00000000       0.25000000 </v>
   <v>       0.91666667       0.50000000       0.25000000 </v>
   <v>       0.16666667       0.00000000       0.58333333 </v>
   <v>       0.41666667       0.50000000       0.58333333 </v>
   <v>       0.66666667       0.00000000       0.58333333 </v>
   <v>       0.91666667       0.50000000       0.58333333 </v>
   <v>       0.16666667       0.00000000       0.91666667 </v>
   <v>       0.41666667       0.50000000       0.91666667 </v>
   <v>       0.66666667       0.00000000       0.91666667 </v>
   <v>       0.91666667       0.50000000       0.91666667 </v>
  </varray>
 </structure>
 <calculation>
  <scstep>
   <time name="dav">    2.60    2.60</time>
   <time name="total">    2.64    2.64</time>
   <energy>
    <i name="alphaZ">     46.16035745 </i>
    <i name="ewald">  -1147.00500358 </i>
    <i name="hartreedc">   -325.55736705 </i>
    <i name="XCdc">    188.77275673 </i>
    <i name="pawpsdc">   1096.62050802 </i>
    <i name="pawaedc">  -1132.77759231 </i>
    <i name="eentropy">     -0.00000000 </i>
    <i name="bandstr">   -322.21812577 </i>
    <i name="atom">   1889.38125292 </i>
    <i name="e_fr_energy">    293.37678641 </i>
    <i name="e_wo_entrp">    293.37678641 </i>
    <i name="e_0_energy">    293.37678641 </i>
   </energy>
  </scstep>
  <scstep>
   <time name="dav">    2.78    2.78</time>
   <time name="total">    2.78    2.78</time>
   <energy>
    <i name="e_fr_energy">     25.27159439 </i>
    <i name="e_wo_entrp">     25.27159439 </i>
    <i name="e_0_energy">     25.27159439 </i>
   </energy>
  </scstep>
  <scstep>
   <time name="dav">    2.98    2.98</time>
   <time name="total">    2.98    2.99</time>
   <energy>
    <i name="e_fr_energy">      8.36980734 </i>
    <i name="e_wo_entrp">      8.36980734 </i>
    <i name="e_0_energy">      8.36980734 </i>
   </energy>
  </scstep>
  <scstep>
   <time name="dav">    2.93    2.93</time>
   <time name="total">    2.93    2.93</time>
   <energy>
    <i name="e_fr_energy">      7.81310268 </i>
    <i name="e_wo_entrp">      7.81310268 </i>
    <i name="e_0_energy">      7.81310268 </i>
   </energy>
  </scstep>
  <scstep>
   <time name="dav">    2.82    2.83</time>
   <time name="total">    2.90    2.91</time>
   <energy>
    <i name="e_fr_energy">      7.79479151 </i>
    <i name="e_wo_entrp">      7.79479151 </i>
    <i name="e_0_energy">      7.79479151 </i>
   </energy>
  </scstep>
  <scstep>
   <time name="dav">    2.93    2.93</time>
   <time name="total">    3.04    3.04</time>
   <energy>
    <i name="e_fr_energy">      7.85455857 </i>
    <i name="e_wo_entrp">      7.85455857 </i>
    <i name="e_0_energy">      7.85455857 </i>
   </energy>
  </scstep>
  <scstep>
   <time name="dav">    2.82    2.82</time>
   <time name="total">    2.92    2.92</time>
   <energy>
    <i name="e_fr_energy">      7.86907369 </i>
    <i name="e_wo_entrp">      7.86907369 </i>
    <i name="e_0_energy">      7.86907369 </i>
   </energy>
  </scstep>
  <scstep>
   <time name="dav">    2.80    2.80</time>
   <time name="total">    2.90    2.90</time>
   <energy>
    <i name="e_fr_energy">      7.86818487 </i>
    <i name="e_wo_entrp">      7.86818487 </i>
    <i name="e_0_energy">      7.86818487 </i>
   </energy>
  </scstep>
  <scstep>
   <time name="dav">    2.61    2.62</time>
   <time name="total">    2.72    2.72</time>
   <energy>
    <i name="e_fr_energy">      7.86771860 </i>
    <i name="e_wo_entrp">      7.86771860 </i>
    <i name="e_0_energy">      7.86771860 </i>
   </energy>
  </scstep>
  <scstep>
   <time name="dav">    2.96    2.96</time>
   <time name="total">    3.06    3.06</time>
   <energy>
    <i name="e_fr_energy">      7.86771832 </i>
    <i name="e_wo_entrp">      7.86771832 </i>
    <i name="e_0_energy">      7.86771832 </i>
   </energy>
  </scstep>
  <scstep>
   <time name="dav">    2.59    2.60</time>
   <time name="total">    2.70    2.70</time>
   <energy>
    <i name="e_fr_energy">      7.86771799 </i>
    <i name="e_wo_entrp">      7.86771799 </i>
    <i name="e_0_energy">      7.86771799 </i>
   </energy>
  </scstep>
  <scstep>
   <time name="dav">    2.20    2.20</time>
   <time name="total">    2.30    2.30</time>
   <energy>
    <i name="e_fr_energy">      7.86771833 </i>
    <i name="e_wo_entrp">      7.86771833 </i>
    <i name="e_0_energy">      7.86771833 </i>
   </energy>
  </scstep>
  <scstep>
   <time name="dav">    1.92    1.92</time>
   <time name="total">    1.96    1.96</time>
   <energy>
    <i name="alphaZ">     46.16035745 </i>
    <i name="ewald">  -1147.00500358 </i>
    <i name="hartreedc">   -338.64268188 </i>
    <i name="XCdc">    190.97730627 </i>
    <i name="pawpsdc">   1147.02765503 </i>
    <i name="pawaedc">  -1184.55511427 </i>
    <i name="eentropy">     -0.00000000 </i>
    <i name="bandstr">   -595.47605366 </i>
    <i name="atom">   1889.38125292 </i>
    <i name="e_fr_energy">      7.86771828 </i>
    <i name="e_wo_entrp">      7.86771828 </i>
    <i name="e_0_energy">      7.86771828 </i>
   </energy>
  </scstep>
  <structure>
   <crystal>
    <varray name="basis" >
     <v>       5.86288214       3.38493658       0.00000000 </v>
     <v>      -0.97714702       1.69246829       0.00000000 </v>
     <v>       0.00000000       0.00000000       9.56312345 </v>
    </varray>
    <i name="volume">    126.52321019 </i>
    <varray name="rec_basis" >
     <v>       0.12792343       0.07385663      -0.00000000 </v>
     <v>      -0.25584686       0.44313976       0.00000000 </v>
     <v>       0.00000000      -0.00000000       0.10456835 </v>
    </varray>
   </crystal>
   <varray name="positions" >
    <v>       0.08249149       0.49915816       0.08249149 </v>
    <v>       0.33333333       0.00000000       0.08333333 </v>
    <v>       0.58333333       0.50000000       0.08333333 </v>
    <v>       0.83333333       0.00000000       0.08333333 </v>
    <v>       0.08333333       0.50000000       0.41666667 </v>
    <v>       0.33333333       0.00000000       0.41666667 </v>
    <v>       0.58333333       0.50000000       0.41666667 </v>
    <v>       0.83333333       0.00000000       0.41666667 </v>
    <v>       0.08333333       0.50000000       0.75000000 </v>
    <v>       0.33333333       0.00000000       0.75000000 </v>
    <v>       0.58333333       0.50000000       0.75000000 </v>
    <v>       0.83333333       0.00000000       0.75000000 </v>
    <v>       0.16666667       0.00000000       0.25000000 </v>
    <v>       0.41666667       0.50000000       0.25000000 </v>
    <v>       0.66666667       0.00000000       0.25000000 </v>
    <v>       0.91666667       0.50000000       0.25000000 </v>
    <v>       0.16666667       0.00000000       0.58333333 </v>
    <v>       0.41666667       0.50000000       0.58333333 </v>
    <v>       0.66666667       0.00000000       0.58333333 </v>
    <v>       0.91666667       0.50000000       0.58333333 </v>
    <v>       0.16666667       0.00000000       0.91666667 </v>
    <v>       0.41666667       0.50000000       0.91666667 </v>
    <v>       0.66666667       0.00000000       0.91666667 </v>
    <v>       0.91666667       0.50000000       0.91666667 </v>
   </varray>
  </structure>
  <varray name="forces" >
   <v>       0.01666234       0.01255603       0.02926546 </v>
   <v>      -0.00667688      -0.00462756       0.00108709 </v>
   <v>      -0.00007110      -0.00004208      -0.00001520 </v>
   <v>      -0.00674001      -0.00470963       0.00115033 </v>
   <v>       0.00005855       0.00003555      -0.00019968 </v>
   <v>       0.00004142       0.00002428      -0.00000178 </v>
   <v>       0.00004242       0.00002478       0.00000914 </v>
   <v>       0.00003739       0.00002201      -0.00000562 </v>
   <v>       0.00004734       0.00002907      -0.00019447 </v>
   <v>       0.00004194       0.00002462      -0.00000942 </v>
   <v>       0.00004494       0.00002623       0.00000707 </v>
   <v>       0.00004556       0.00002669      -0.00000693 </v>
   <v>      -0.00320440      -0.00263072      -0.01287945 </v>
   <v>      -0.00015811      -0.00010877      -0.00008193 </v>
   <v>      -0.00006272      -0.00003955       0.00002072 </v>
   <v>       0.00179744       0.00118829      -0.00239011 </v>
   <v>      -0.00004342      -0.00002459      -0.00000038 </v>
   <v>      -0.00004229      -0.00002383       0.00000588 </v>
   <v>      -0.00004251      -0.00002409       0.00000822 </v>
   <v>      -0.00004296      -0.00002436      -0.00000062 </v>
   <v>       0.00359001       0.00123087      -0.00759758 </v>
   <v>      -0.00003113      -0.00003616       0.00002198 </v>
   <v>      -0.00019482      -0.00011591      -0.00008631 </v>
   <v>      -0.00509898      -0.00278120      -0.00810639 </v>
  </varray>
  <varray name="stress" >
   <v>     277.01649441       0.05862487       0.00050986 </v>
   <v>       0.05862482     276.91664932       0.00101616 </v>
   <v>       0.00050987       0.00101618     276.55774322 </v>
  </varray>
  <energy>
   <i name="e_fr_energy">      7.27442972 </i>
   <i name="e_wo_entrp">      7.27442972 </i>
   <i name="e_0_energy">      7.27442972 </i>
  </energy>
  <time name="totalsc">   39.85   39.90</time>
  <eigenvalues>
   <array>
    <dimension dim="1">band</dimension>
    <dimension dim="2">kpoint</dimension>
    <dimension dim="3">spin</dimension>
    <field>eigene</field>
    <field>occ</field>
    <set>
     <set comment="spin 1">
      <set comment="kpoint 1">
       <r>  -17.9202    1.0000 </r>
       <r>  -16.8061    1.0000 </r>
       <r>  -16.8005    1.0000 </r>
       <r>  -15.7688    1.0000 </r>
       <r>  -15.7640    1.0000 </r>
       <r>  -14.7931    1.0000 </r>
       <r>  -14.7870    1.0000 </r>
       <r>  -14.7867    1.0000 </r>
       <r>  -14.7803    1.0000 </r>
       <r>  -14.0037    1.0000 </r>
       <r>  -13.9972    1.0000 </r>
       <r>  -12.4498    1.0000 </r>
       <r>  -12.4435    1.0000 </r>
       <r>  -12.4433    1.0000 </r>
       <r>  -12.4372    1.0000 </r>
       <r>  -12.1769    1.0000 </r>
       <r>  -12.0801    1.0000 </r>
       <r>  -11.7157    1.0000 </r>
       <r>  -11.7127    1.0000 </r>
       <r>  -10.9744    1.0000 </r>
       <r>  -10.9720    1.0000 </r>
       <r>  -10.8594    1.0000 </r>
       <r>  -10.8571    1.0000 </r>
       <r>  -10.4917    1.0000 </r>
       <r>    8.1284    0.0000 </r>
       <r>    9.2514    0.0000 </r>
       <r>    9.2547    0.0000 </r>
       <r>    9.4245    0.0000 </r>
       <r>   11.3744    0.0000 </r>
       <r>   11.3779    0.0000 </r>
       <r>   11.5291    0.0000 </r>
       <r>   11.5345    0.0000 </r>
       <r>   11.6626    0.0000 </r>
       <r>   11.6760    0.0000 </r>
       <r>   12.4291    0.0000 </r>
       <r>   12.4427    0.0000 </r>
       <r>   12.4444    0.0000 </r>
       <r>   12.4568    0.0000 </r>
       <r>   14.5577    0.0000 </r>
       <r>   14.5699    0.0000 </r>
      </set>
      <set comment="kpoint 2">
       <r>  -17.8565    1.0000 </r>
       <r>  -16.7456    1.0000 </r>
       <r>  -16.7400    1.0000 </r>
       <r>  -16.3918    1.0000 </r>
       <r>  -15.3679    1.0000 </r>
       <r>  -15.3627    1.0000 </r>
       <r>  -15.0704    1.0000 </r>
       <r>  -14.1546    1.0000 </r>
       <r>  -14.1499    1.0000 </r>
       <r>  -13.9543    1.0000 </r>
       <r>  -13.9477    1.0000 </r>
       <r>  -12.8709    1.0000 </r>
       <r>  -12.8651    1.0000 </r>
       <r>  -12.3894    1.0000 </r>
       <r>  -12.0425    1.0000 </r>
       <r>  -12.0082    1.0000 </r>
       <r>  -12.0034    1.0000 </r>
       <r>  -11.8757    1.0000 </r>
       <r>  -11.8726    1.0000 </r>
       <r>  -11.2541    1.0000 </r>
       <r>  -10.8858    1.0000 </r>
       <r>  -10.8834    1.0000 </r>
       <r>  -10.7100    1.0000 </r>
       <r>  -10.4363    1.0000 </r>
       <r>    8.2188    0.0000 </r>
       <r>    9.4303    0.0000 </r>
       <r>    9.4338    0.0000 </r>
       <r>    9.6327    0.0000 </r>
       <r>   10.3851    0.0000 </r>
       <r>   11.6475    0.0000 </r>
       <r>   11.6536    0.0000 </r>
       <r>   11.7059    0.0000 </r>
       <r>   11.7189    0.0000 </r>
       <r>   12.1860    0.0000 </r>
       <r>   12.1952    0.0000 </r>
       <r>   12.3995    0.0000 </r>
       <r>   12.4119    0.0000 </r>
       <r>   12.5463    0.0000 </r>
       <r>   13.6998    0.0000 </r>
       <r>   13.7154    0.0000 </r>
      </set>
      <set comment="kpoint 3">
       <r>  -17.6666    1.0000 </r>
       <r>  -16.9259    1.0000 </r>
       <r>  -16.5655    1.0000 </r>
       <r>  -16.5600    1.0000 </r>
       <r>  -15.8670    1.0000 </r>
       <r>  -15.8617    1.0000 </r>
       <r>  -14.3328    1.0000 </r>
       <r>  -13.8080    1.0000 </r>
       <r>  -13.8016    1.0000 </r>
       <r>  -13.4957    1.0000 </r>
       <r>  -13.4914    1.0000 </r>
       <r>  -13.2531    1.0000 </r>
       <r>  -13.2470    1.0000 </r>
       <r>  -12.9143    1.0000 </r>
       <r>  -12.2898    1.0000 </r>
       <r>  -12.2864    1.0000 </r>
       <r>  -11.9314    1.0000 </r>
       <r>  -11.5943    1.0000 </r>
       <r>  -11.5901    1.0000 </r>
       <r>  -11.5223    1.0000 </r>
       <r>  -11.0044    1.0000 </r>
       <r>  -11.0015    1.0000 </r>
       <r>  -10.4998    1.0000 </r>
       <r>  -10.3634    1.0000 </r>
       <r>    8.4898    0.0000 </r>
       <r>    9.5732    0.0000 </r>
       <r>    9.9401    0.0000 </r>
       <r>    9.9442    0.0000 </r>
       <r>   10.2404    0.0000 </r>
       <r>   11.5392    0.0000 </r>
       <r>   11.5460    0.0000 </r>
       <r>   11.8282    0.0000 </r>
       <r>   11.8418    0.0000 </r>
       <r>   11.9790    0.0000 </r>
       <r>   11.9842    0.0000 </r>
       <r>   12.2245    0.0000 </r>
       <r>   12.2374    0.0000 </r>
       <r>   12.4256    0.0000 </r>
       <r>   13.0076    0.0000 </r>
       <r>   13.0146    0.0000 </r>
      </set>
      <set comment="kpoint 4">
       <r>  -17.3557    1.0000 </r>
       <r>  -17.3527    1.0000 </r>
       <r>  -16.2735    1.0000 </r>
       <r>  -16.2674    1.0000 </r>
       <r>  -16.2673    1.0000 </r>
       <r>  -16.2614    1.0000 </r>
       <r>  -13.5973    1.0000 </r>
       <r>  -13.5925    1.0000 </r>
       <r>  -13.5737    1.0000 </r>
       <r>  -13.5677    1.0000 </r>
       <r>  -13.5675    1.0000 </r>
       <r>  -13.5603    1.0000 </r>
       <r>  -12.8583    1.0000 </r>
       <r>  -12.8539    1.0000 </r>
       <r>  -12.8535    1.0000 </r>
       <r>  -12.8475    1.0000 </r>
       <r>  -11.7551    1.0000 </r>
       <r>  -11.7531    1.0000 </r>
       <r>  -11.2491    1.0000 </r>
       <r>  -11.2446    1.0000 </r>
       <r>  -11.2443    1.0000 </r>
       <r>  -11.2408    1.0000 </r>
       <r>  -10.3780    1.0000 </r>
       <r>  -10.3766    1.0000 </r>
       <r>    8.9402    0.0000 </r>
       <r>    8.9425    0.0000 </r>
       <r>   10.6914    0.0000 </r>
       <r>   10.6988    0.0000 </r>
       <r>   10.7010    0.0000 </r>
       <r>   10.7074    0.0000 </r>
       <r>   11.1935    0.0000 </r>
       <r>   11.2026    0.0000 </r>
       <r>   12.0058    0.0000 </r>
       <r>   12.0201    0.0000 </r>
       <r>   12.0205    0.0000 </r>
       <r>   12.0341    0.0000 </r>
       <r>   12.4426    0.0000 </r>
       <r>   12.4552    0.0000 </r>
       <r>   12.4566    0.0000 </r>
       <r>   12.4635    0.0000 </r>
      </set>
      <set comment="kpoint 5">
       <r>  -17.8578    1.0000 </r>
       <r>  -16.7469    1.0000 </r>
       <r>  -16.7413    1.0000 </r>
       <r>  -15.7140    1.0000 </r>
       <r>  -15.7092    1.0000 </r>
       <r>  -14.7426    1.0000 </r>
       <r>  -14.7365    1.0000 </r>
       <r>  -14.7362    1.0000 </r>
       <r>  -14.7298    1.0000 </r>
       <r>  -13.9553    1.0000 </r>
       <r>  -13.9488    1.0000 </r>
       <r>  -12.4129    1.0000 </r>
       <r>  -12.4067    1.0000 </r>
       <r>  -12.4065    1.0000 </r>
       <r>  -12.4004    1.0000 </r>
       <r>  -12.1390    1.0000 </r>
       <r>  -12.0432    1.0000 </r>
       <r>  -11.6840    1.0000 </r>
       <r>  -11.6811    1.0000 </r>
       <r>  -10.9498    1.0000 </r>
       <r>  -10.9475    1.0000 </r>
       <r>  -10.8419    1.0000 </r>
       <r>  -10.8396    1.0000 </r>
       <r>  -10.4815    1.0000 </r>
       <r>    8.2169    0.0000 </r>
       <r>    9.3378    0.0000 </r>
       <r>    9.3411    0.0000 </r>
       <r>    9.4900    0.0000 </r>
       <r>   11.4626    0.0000 </r>
       <r>   11.4662    0.0000 </r>
       <r>   11.6112    0.0000 </r>
       <r>   11.6168    0.0000 </r>
       <r>   11.7049    0.0000 </r>
       <r>   11.7181    0.0000 </r>
       <r>   12.4548    0.0000 </r>
       <r>   12.4683    0.0000 </r>
       <r>   12.4700    0.0000 </r>
       <r>   12.4823    0.0000 </r>
       <r>   14.5151    0.0000 </r>
       <r>   14.5246    0.0000 </r>
      </set>
      <set comment="kpoint 6">
       <r>  -17.7943    1.0000 </r>
       <r>  -16.6866    1.0000 </r>
       <r>  -16.6810    1.0000 </r>
       <r>  -16.3345    1.0000 </r>
       <r>  -15.3146    1.0000 </r>
       <r>  -15.3094    1.0000 </r>
       <r>  -15.0186    1.0000 </r>
       <r>  -14.1075    1.0000 </r>
       <r>  -14.1028    1.0000 </r>
       <r>  -13.9062    1.0000 </r>
       <r>  -13.8997    1.0000 </r>
       <r>  -12.8305    1.0000 </r>
       <r>  -12.8248    1.0000 </r>
       <r>  -12.3508    1.0000 </r>
       <r>  -12.0059    1.0000 </r>
       <r>  -11.9755    1.0000 </r>
       <r>  -11.9706    1.0000 </r>
       <r>  -11.8431    1.0000 </r>
       <r>  -11.8400    1.0000 </r>
       <r>  -11.2260    1.0000 </r>
       <r>  -10.8673    1.0000 </r>
       <r>  -10.8649    1.0000 </r>
       <r>  -10.6893    1.0000 </r>
       <r>  -10.4255    1.0000 </r>
       <r>    8.3073    0.0000 </r>
       <r>    9.5144    0.0000 </r>
       <r>    9.5179    0.0000 </r>
       <r>    9.6964    0.0000 </r>
       <r>   10.4734    0.0000 </r>
       <r>   11.7219    0.0000 </r>
       <r>   11.7291    0.0000 </r>
       <r>   11.7480    0.0000 </r>
       <r>   11.7603    0.0000 </r>
       <r>   12.2236    0.0000 </r>
       <r>   12.2327    0.0000 </r>
       <r>   12.4239    0.0000 </r>
       <r>   12.4362    0.0000 </r>
       <r>   12.6343    0.0000 </r>
       <r>   13.6700    0.0000 </r>
       <r>   13.6776    0.0000 </r>
      </set>
      <set comment="kpoint 7">
       <r>  -17.7943    1.0000 </r>
       <r>  -16.6866    1.0000 </r>
       <r>  -16.6810    1.0000 </r>
       <r>  -16.3345    1.0000 </r>
       <r>  -15.3146    1.0000 </r>
       <r>  -15.3094    1.0000 </r>
       <r>  -15.0186    1.0000 </r>
       <r>  -14.1075    1.0000 </r>
       <r>  -14.1028    1.0000 </r>
       <r>  -13.9062    1.0000 </r>
       <r>  -13.8997    1.0000 </r>
       <r>  -12.8305    1.0000 </r>
       <r>  -12.8248    1.0000 </r>
       <r>  -12.3508    1.0000 </r>
       <r>  -12.0059    1.0000 </r>
       <r>  -11.9755    1.0000 </r>
       <r>  -11.9706    1.0000 </r>
       <r>  -11.8431    1.0000 </r>
       <r>  -11.8400    1.0000 </r>
       <r>  -11.2260    1.0000 </r>
       <r>  -10.8673    1.0000 </r>
       <r>  -10.8649    1.0000 </r>
       <r>  -10.6893    1.0000 </r>
       <r>  -10.4255    1.0000 </r>
       <r>    8.3073    0.0000 </r>
       <r>    9.5144    0.0000 </r>
       <r>    9.5179    0.0000 </r>
       <r>    9.6964    0.0000 </r>
       <r>   10.4734    0.0000 </r>
       <r>   11.7219    0.0000 </r>
       <r>   11.7291    0.0000 </r>
       <r>   11.7480    0.0000 </r>
       <r>   11.7603    0.0000 </r>
       <r>   12.2235    0.0000 </r>
       <r>   12.2326    0.0000 </r>
       <r>   12.4240    0.0000 </r>
       <r>   12.4362    0.0000 </r>
       <r>   12.6343    0.0000 </r>
       <r>   13.6731    0.0000 </r>
       <r>   13.6944    0.0000 </r>
      </set>
      <set comment="kpoint 8">
       <r>  -17.6050    1.0000 </r>
       <r>  -16.8667    1.0000 </r>
       <r>  -16.5072    1.0000 </r>
       <r>  -16.5017    1.0000 </r>
       <r>  -15.8115    1.0000 </r>
       <r>  -15.8062    1.0000 </r>
       <r>  -14.2845    1.0000 </r>
       <r>  -13.7609    1.0000 </r>
       <r>  -13.7545    1.0000 </r>
       <r>  -13.4524    1.0000 </r>
       <r>  -13.4481    1.0000 </r>
       <r>  -13.2098    1.0000 </r>
       <r>  -13.2037    1.0000 </r>
       <r>  -12.8732    1.0000 </r>
       <r>  -12.2544    1.0000 </r>
       <r>  -12.2510    1.0000 </r>
       <r>  -11.8959    1.0000 </r>
       <r>  -11.5659    1.0000 </r>
       <r>  -11.5616    1.0000 </r>
       <r>  -11.4911    1.0000 </r>
       <r>  -10.9835    1.0000 </r>
       <r>  -10.9807    1.0000 </r>
       <r>  -10.4827    1.0000 </r>
       <r>  -10.3514    1.0000 </r>
       <r>    8.5783    0.0000 </r>
       <r>    9.6616    0.0000 </r>
       <r>   10.0173    0.0000 </r>
       <r>   10.0214    0.0000 </r>
       <r>   10.2984    0.0000 </r>
       <r>   11.5925    0.0000 </r>
       <r>   11.5993    0.0000 </r>
       <r>   11.8667    0.0000 </r>
       <r>   11.8803    0.0000 </r>
       <r>   12.0352    0.0000 </r>
       <r>   12.0403    0.0000 </r>
       <r>   12.2532    0.0000 </r>
       <r>   12.2661    0.0000 </r>
       <r>   12.4548    0.0000 </r>
       <r>   13.0031    0.0000 </r>
       <r>   13.0100    0.0000 </r>
      </set>
      <set comment="kpoint 9">
       <r>  -17.6050    1.0000 </r>
       <r>  -16.8667    1.0000 </r>
       <r>  -16.5072    1.0000 </r>
       <r>  -16.5017    1.0000 </r>
       <r>  -15.8115    1.0000 </r>
       <r>  -15.8062    1.0000 </r>
       <r>  -14.2845    1.0000 </r>
       <r>  -13.7609    1.0000 </r>
       <r>  -13.7545    1.0000 </r>
       <r>  -13.4524    1.0000 </r>
       <r>  -13.4481    1.0000 </r>
       <r>  -13.2098    1.0000 </r>
       <r>  -13.2037    1.0000 </r>
       <r>  -12.8732    1.0000 </r>
       <r>  -12.2544    1.0000 </r>
       <r>  -12.2510    1.0000 </r>
       <r>  -11.8959    1.0000 </r>
       <r>  -11.5659    1.0000 </r>
       <r>  -11.5616    1.0000 </r>
       <r>  -11.4911    1.0000 </r>
       <r>  -10.9834    1.0000 </r>
       <r>  -10.9807    1.0000 </r>
       <r>  -10.4827    1.0000 </r>
       <r>  -10.3513    1.0000 </r>
       <r>    8.5783    0.0000 </r>
       <r>    9.6616    0.0000 </r>
       <r>   10.0173    0.0000 </r>
       <r>   10.0214    0.0000 </r>
       <r>   10.2984    0.0000 </r>
       <r>   11.5925    0.0000 </r>
       <r>   11.5992    0.0000 </r>
       <r>   11.8667    0.0000 </r>
       <r>   11.8803    0.0000 </r>
       <r>   12.0352    0.0000 </r>
       <r>   12.0404    0.0000 </r>
       <r>   12.2533    0.0000 </r>
       <r>   12.2661    0.0000 </r>
       <r>   12.4549    0.0000 </r>
       <r>   13.0031    0.0000 </r>
       <r>   13.0100    0.0000 </r>
      </set>
      <set comment="kpoint 10">
       <r>  -17.2951    1.0000 </r>
       <r>  -17.2921    1.0000 </r>
       <r>  -16.2163    1.0000 </r>
       <r>  -16.2103    1.0000 </r>
       <r>  -16.2101    1.0000 </r>
       <r>  -16.2043    1.0000 </r>
       <r>  -13.5527    1.0000 </r>
       <r>  -13.5479    1.0000 </r>
       <r>  -13.5281    1.0000 </r>
       <r>  -13.5222    1.0000 </r>
       <r>  -13.5220    1.0000 </r>
       <r>  -13.5148    1.0000 </r>
       <r>  -12.8190    1.0000 </r>
       <r>  -12.8146    1.0000 </r>
       <r>  -12.8142    1.0000 </r>
       <r>  -12.8083    1.0000 </r>
       <r>  -11.7214    1.0000 </r>
       <r>  -11.7194    1.0000 </r>
       <r>  -11.2247    1.0000 </r>
       <r>  -11.2203    1.0000 </r>
       <r>  -11.2200    1.0000 </r>
       <r>  -11.2165    1.0000 </r>
       <r>  -10.3639    1.0000 </r>
       <r>  -10.3625    1.0000 </r>
       <r>    9.0287    0.0000 </r>
       <r>    9.0309    0.0000 </r>
       <r>   10.7578    0.0000 </r>
       <r>   10.7652    0.0000 </r>
       <r>   10.7674    0.0000 </r>
       <r>   10.7738    0.0000 </r>
       <r>   11.2406    0.0000 </r>
       <r>   11.2498    0.0000 </r>
       <r>   12.0399    0.0000 </r>
       <r>   12.0542    0.0000 </r>
       <r>   12.0546    0.0000 </r>
       <r>   12.0681    0.0000 </r>
       <r>   12.4702    0.0000 </r>
       <r>   12.4827    0.0000 </r>
       <r>   12.4840    0.0000 </r>
       <r>   12.4909    0.0000 </r>
      </set>
      <set comment="kpoint 11">
       <r>  -17.6718    1.0000 </r>
       <r>  -16.5704    1.0000 </r>
       <r>  -16.5649    1.0000 </r>
       <r>  -15.5513    1.0000 </r>
       <r>  -15.5466    1.0000 </r>
       <r>  -14.5929    1.0000 </r>
       <r>  -14.5868    1.0000 </r>
       <r>  -14.5866    1.0000 </r>
       <r>  -14.5803    1.0000 </r>
       <r>  -13.8119    1.0000 </r>
       <r>  -13.8055    1.0000 </r>
       <r>  -12.3049    1.0000 </r>
       <r>  -12.2989    1.0000 </r>
       <r>  -12.2986    1.0000 </r>
       <r>  -12.2927    1.0000 </r>
       <r>  -12.0273    1.0000 </r>
       <r>  -11.9344    1.0000 </r>
       <r>  -11.5916    1.0000 </r>
       <r>  -11.5887    1.0000 </r>
       <r>  -10.8793    1.0000 </r>
       <r>  -10.8770    1.0000 </r>
       <r>  -10.7927    1.0000 </r>
       <r>  -10.7905    1.0000 </r>
       <r>  -10.4549    1.0000 </r>
       <r>    8.4824    0.0000 </r>
       <r>    9.5966    0.0000 </r>
       <r>    9.5998    0.0000 </r>
       <r>    9.6822    0.0000 </r>
       <r>   11.7271    0.0000 </r>
       <r>   11.7307    0.0000 </r>
       <r>   11.8245    0.0000 </r>
       <r>   11.8386    0.0000 </r>
       <r>   11.8585    0.0000 </r>
       <r>   11.8619    0.0000 </r>
       <r>   12.5212    0.0000 </r>
       <r>   12.5344    0.0000 </r>
       <r>   12.5360    0.0000 </r>
       <r>   12.5481    0.0000 </r>
       <r>   14.3613    0.0000 </r>
       <r>   14.3781    0.0000 </r>
      </set>
      <set comment="kpoint 12">
       <r>  -17.6089    1.0000 </r>
       <r>  -16.5109    1.0000 </r>
       <r>  -16.5053    1.0000 </r>
       <r>  -16.1643    1.0000 </r>
       <r>  -15.1564    1.0000 </r>
       <r>  -15.1512    1.0000 </r>
       <r>  -14.8651    1.0000 </r>
       <r>  -13.9681    1.0000 </r>
       <r>  -13.9635    1.0000 </r>
       <r>  -13.7637    1.0000 </r>
       <r>  -13.7573    1.0000 </r>
       <r>  -12.7118    1.0000 </r>
       <r>  -12.7061    1.0000 </r>
       <r>  -12.2372    1.0000 </r>
       <r>  -11.8983    1.0000 </r>
       <r>  -11.8799    1.0000 </r>
       <r>  -11.8752    1.0000 </r>
       <r>  -11.7479    1.0000 </r>
       <r>  -11.7449    1.0000 </r>
       <r>  -11.1445    1.0000 </r>
       <r>  -10.8152    1.0000 </r>
       <r>  -10.8130    1.0000 </r>
       <r>  -10.6303    1.0000 </r>
       <r>  -10.3970    1.0000 </r>
       <r>    8.5727    0.0000 </r>
       <r>    9.7655    0.0000 </r>
       <r>    9.7689    0.0000 </r>
       <r>    9.8827    0.0000 </r>
       <r>   10.7384    0.0000 </r>
       <r>   11.8639    0.0000 </r>
       <r>   11.8777    0.0000 </r>
       <r>   11.9478    0.0000 </r>
       <r>   11.9524    0.0000 </r>
       <r>   12.3279    0.0000 </r>
       <r>   12.3368    0.0000 </r>
       <r>   12.4869    0.0000 </r>
       <r>   12.4989    0.0000 </r>
       <r>   12.8986    0.0000 </r>
       <r>   13.5664    0.0000 </r>
       <r>   13.5743    0.0000 </r>
      </set>
      <set comment="kpoint 13">
       <r>  -17.6089    1.0000 </r>
       <r>  -16.5109    1.0000 </r>
       <r>  -16.5053    1.0000 </r>
       <r>  -16.1643    1.0000 </r>
       <r>  -15.1564    1.0000 </r>
       <r>  -15.1512    1.0000 </r>
       <r>  -14.8651    1.0000 </r>
       <r>  -13.9681    1.0000 </r>
       <r>  -13.9635    1.0000 </r>
       <r>  -13.7637    1.0000 </r>
       <r>  -13.7573    1.0000 </r>
       <r>  -12.7118    1.0000 </r>
       <r>  -12.7061    1.0000 </r>
       <r>  -12.2372    1.0000 </r>
       <r>  -11.8983    1.0000 </r>
       <r>  -11.8799    1.0000 </r>
       <r>  -11.8752    1.0000 </r>
       <r>  -11.7480    1.0000 </r>
       <r>  -11.7450    1.0000 </r>
       <r>  -11.1445    1.0000 </r>
       <r>  -10.8152    1.0000 </r>
       <r>  -10.8130    1.0000 </r>
       <r>  -10.6304    1.0000 </r>
       <r>  -10.3970    1.0000 </r>
       <r>    8.5727    0.0000 </r>
       <r>    9.7655    0.0000 </r>
       <r>    9.7689    0.0000 </r>
       <r>    9.8826    0.0000 </r>
       <r>   10.7384    0.0000 </r>
       <r>   11.8639    0.0000 </r>
       <r>   11.8777    0.0000 </r>
       <r>   11.9478    0.0000 </r>
       <r>   11.9524    0.0000 </r>
       <r>   12.3278    0.0000 </r>
       <r>   12.3366    0.0000 </r>
       <r>   12.4870    0.0000 </r>
       <r>   12.4990    0.0000 </r>
       <r>   12.8986    0.0000 </r>
       <r>   13.5665    0.0000 </r>
       <r>   13.5738    0.0000 </r>
      </set>
      <set comment="kpoint 14">
       <r>  -17.4213    1.0000 </r>
       <r>  -16.6906    1.0000 </r>
       <r>  -16.3335    1.0000 </r>
       <r>  -16.3281    1.0000 </r>
       <r>  -15.6465    1.0000 </r>
       <r>  -15.6412    1.0000 </r>
       <r>  -14.1415    1.0000 </r>
       <r>  -13.6214    1.0000 </r>
       <r>  -13.6151    1.0000 </r>
       <r>  -13.3248    1.0000 </r>
       <r>  -13.3206    1.0000 </r>
       <r>  -13.0821    1.0000 </r>
       <r>  -13.0762    1.0000 </r>
       <r>  -12.7523    1.0000 </r>
       <r>  -12.1510    1.0000 </r>
       <r>  -12.1477    1.0000 </r>
       <r>  -11.7916    1.0000 </r>
       <r>  -11.4834    1.0000 </r>
       <r>  -11.4793    1.0000 </r>
       <r>  -11.4001    1.0000 </r>
       <r>  -10.9241    1.0000 </r>
       <r>  -10.9214    1.0000 </r>
       <r>  -10.4347    1.0000 </r>
       <r>  -10.3189    1.0000 </r>
       <r>    8.8437    0.0000 </r>
       <r>    9.9268    0.0000 </r>
       <r>   10.2460    0.0000 </r>
       <r>   10.2500    0.0000 </r>
       <r>   10.4653    0.0000 </r>
       <r>   11.7459    0.0000 </r>
       <r>   11.7525    0.0000 </r>
       <r>   11.9760    0.0000 </r>
       <r>   11.9895    0.0000 </r>
       <r>   12.1963    0.0000 </r>
       <r>   12.2016    0.0000 </r>
       <r>   12.3307    0.0000 </r>
       <r>   12.3433    0.0000 </r>
       <r>   12.5260    0.0000 </r>
       <r>   12.9746    0.0000 </r>
       <r>   12.9814    0.0000 </r>
      </set>
      <set comment="kpoint 15">
       <r>  -17.4213    1.0000 </r>
       <r>  -16.6906    1.0000 </r>
       <r>  -16.3335    1.0000 </r>
       <r>  -16.3280    1.0000 </r>
       <r>  -15.6466    1.0000 </r>
       <r>  -15.6413    1.0000 </r>
       <r>  -14.1415    1.0000 </r>
       <r>  -13.6214    1.0000 </r>
       <r>  -13.6151    1.0000 </r>
       <r>  -13.3248    1.0000 </r>
       <r>  -13.3205    1.0000 </r>
       <r>  -13.0821    1.0000 </r>
       <r>  -13.0762    1.0000 </r>
       <r>  -12.7524    1.0000 </r>
       <r>  -12.1510    1.0000 </r>
       <r>  -12.1477    1.0000 </r>
       <r>  -11.7916    1.0000 </r>
       <r>  -11.4834    1.0000 </r>
       <r>  -11.4793    1.0000 </r>
       <r>  -11.4000    1.0000 </r>
       <r>  -10.9241    1.0000 </r>
       <r>  -10.9214    1.0000 </r>
       <r>  -10.4348    1.0000 </r>
       <r>  -10.3188    1.0000 </r>
       <r>    8.8437    0.0000 </r>
       <r>    9.9268    0.0000 </r>
       <r>   10.2460    0.0000 </r>
       <r>   10.2500    0.0000 </r>
       <r>   10.4653    0.0000 </r>
       <r>   11.7458    0.0000 </r>
       <r>   11.7525    0.0000 </r>
       <r>   11.9760    0.0000 </r>
       <r>   11.9895    0.0000 </r>
       <r>   12.1963    0.0000 </r>
       <r>   12.2016    0.0000 </r>
       <r>   12.3307    0.0000 </r>
       <r>   12.3434    0.0000 </r>
       <r>   12.5262    0.0000 </r>
       <r>   12.9747    0.0000 </r>
       <r>   12.9814    0.0000 </r>
      </set>
      <set comment="kpoint 16">
       <r>  -17.1145    1.0000 </r>
       <r>  -17.1115    1.0000 </r>
       <r>  -16.0461    1.0000 </r>
       <r>  -16.0402    1.0000 </r>
       <r>  -16.0401    1.0000 </r>
       <r>  -16.0342    1.0000 </r>
       <r>  -13.4210    1.0000 </r>
       <r>  -13.4163    1.0000 </r>
       <r>  -13.3936    1.0000 </r>
       <r>  -13.3876    1.0000 </r>
       <r>  -13.3875    1.0000 </r>
       <r>  -13.3804    1.0000 </r>
       <r>  -12.7039    1.0000 </r>
       <r>  -12.6995    1.0000 </r>
       <r>  -12.6992    1.0000 </r>
       <r>  -12.6934    1.0000 </r>
       <r>  -11.6225    1.0000 </r>
       <r>  -11.6207    1.0000 </r>
       <r>  -11.1547    1.0000 </r>
       <r>  -11.1505    1.0000 </r>
       <r>  -11.1502    1.0000 </r>
       <r>  -11.1468    1.0000 </r>
       <r>  -10.3250    1.0000 </r>
       <r>  -10.3237    1.0000 </r>
       <r>    9.2940    0.0000 </r>
       <r>    9.2962    0.0000 </r>
       <r>   10.9520    0.0000 </r>
       <r>   10.9594    0.0000 </r>
       <r>   10.9615    0.0000 </r>
       <r>   10.9681    0.0000 </r>
       <r>   11.3709    0.0000 </r>
       <r>   11.3801    0.0000 </r>
       <r>   12.1349    0.0000 </r>
       <r>   12.1490    0.0000 </r>
       <r>   12.1495    0.0000 </r>
       <r>   12.1630    0.0000 </r>
       <r>   12.5411    0.0000 </r>
       <r>   12.5532    0.0000 </r>
       <r>   12.5546    0.0000 </r>
       <r>   12.5614    0.0000 </r>
      </set>
      <set comment="kpoint 17">
       <r>  -17.3656    1.0000 </r>
       <r>  -16.2809    1.0000 </r>
       <r>  -16.2754    1.0000 </r>
       <r>  -15.2859    1.0000 </r>
       <r>  -15.2812    1.0000 </r>
       <r>  -14.3499    1.0000 </r>
       <r>  -14.3440    1.0000 </r>
       <r>  -14.3437    1.0000 </r>
       <r>  -14.3376    1.0000 </r>
       <r>  -13.5793    1.0000 </r>
       <r>  -13.5730    1.0000 </r>
       <r>  -12.1337    1.0000 </r>
       <r>  -12.1279    1.0000 </r>
       <r>  -12.1277    1.0000 </r>
       <r>  -12.1219    1.0000 </r>
       <r>  -11.8487    1.0000 </r>
       <r>  -11.7602    1.0000 </r>
       <r>  -11.4462    1.0000 </r>
       <r>  -11.4435    1.0000 </r>
       <r>  -10.7714    1.0000 </r>
       <r>  -10.7693    1.0000 </r>
       <r>  -10.7228    1.0000 </r>
       <r>  -10.7208    1.0000 </r>
       <r>  -10.4245    1.0000 </r>
       <r>    8.9248    0.0000 </r>
       <r>    9.9856    0.0000 </r>
       <r>   10.0260    0.0000 </r>
       <r>   10.0297    0.0000 </r>
       <r>   12.0079    0.0000 </r>
       <r>   12.0214    0.0000 </r>
       <r>   12.1685    0.0000 </r>
       <r>   12.1720    0.0000 </r>
       <r>   12.2593    0.0000 </r>
       <r>   12.2642    0.0000 </r>
       <r>   12.5924    0.0000 </r>
       <r>   12.6047    0.0000 </r>
       <r>   12.6062    0.0000 </r>
       <r>   12.6181    0.0000 </r>
       <r>   14.0824    0.0000 </r>
       <r>   14.0949    0.0000 </r>
      </set>
      <set comment="kpoint 18">
       <r>  -17.3037    1.0000 </r>
       <r>  -16.2225    1.0000 </r>
       <r>  -16.2171    1.0000 </r>
       <r>  -15.8858    1.0000 </r>
       <r>  -14.8986    1.0000 </r>
       <r>  -14.8936    1.0000 </r>
[...]
       <r>  -11.4072    1.0000 </r>
       <r>  -11.2068    1.0000 </r>
       <r>  -11.2043    1.0000 </r>
       <r>  -11.1731    1.0000 </r>
       <r>  -11.1705    1.0000 </r>
       <r>  -10.5246    1.0000 </r>
       <r>  -10.5237    1.0000 </r>
       <r>  -10.5050    1.0000 </r>
       <r>  -10.5028    1.0000 </r>
       <r>  -10.4190    1.0000 </r>
       <r>  -10.4175    1.0000 </r>
       <r>  -10.3939    1.0000 </r>
       <r>  -10.3919    1.0000 </r>
       <r>    9.6315    0.0000 </r>
       <r>    9.6333    0.0000 </r>
       <r>    9.8261    0.0000 </r>
       <r>    9.8310    0.0000 </r>
       <r>   10.3352    0.0000 </r>
       <r>   10.3378    0.0000 </r>
       <r>   10.4372    0.0000 </r>
       <r>   10.4405    0.0000 </r>
       <r>   10.6628    0.0000 </r>
       <r>   10.6674    0.0000 </r>
       <r>   11.0040    0.0000 </r>
       <r>   11.0067    0.0000 </r>
       <r>   11.3667    0.0000 </r>
       <r>   11.3695    0.0000 </r>
       <r>   11.4412    0.0000 </r>
       <r>   11.4453    0.0000 </r>
      </set>
      <set comment="kpoint 254">
       <r>  -12.4931    1.0000 </r>
       <r>  -12.4899    1.0000 </r>
       <r>  -12.4898    1.0000 </r>
       <r>  -12.4884    1.0000 </r>
       <r>  -11.9873    1.0000 </r>
       <r>  -11.9841    1.0000 </r>
       <r>  -11.9839    1.0000 </r>
       <r>  -11.9832    1.0000 </r>
       <r>  -11.4730    1.0000 </r>
       <r>  -11.4696    1.0000 </r>
       <r>  -11.4695    1.0000 </r>
       <r>  -11.4665    1.0000 </r>
       <r>  -11.1862    1.0000 </r>
       <r>  -11.1836    1.0000 </r>
       <r>  -11.1835    1.0000 </r>
       <r>  -11.1812    1.0000 </r>
       <r>  -10.4600    1.0000 </r>
       <r>  -10.4594    1.0000 </r>
       <r>  -10.4592    1.0000 </r>
       <r>  -10.4587    1.0000 </r>
       <r>  -10.4581    1.0000 </r>
       <r>  -10.4578    1.0000 </r>
       <r>  -10.4576    1.0000 </r>
       <r>  -10.4522    1.0000 </r>
       <r>   10.0781    0.0000 </r>
       <r>   10.0834    0.0000 </r>
       <r>   10.0843    0.0000 </r>
       <r>   10.0846    0.0000 </r>
       <r>   10.3560    0.0000 </r>
       <r>   10.3622    0.0000 </r>
       <r>   10.3627    0.0000 </r>
       <r>   10.3637    0.0000 </r>
       <r>   10.7991    0.0000 </r>
       <r>   10.8009    0.0000 </r>
       <r>   10.8017    0.0000 </r>
       <r>   10.8040    0.0000 </r>
       <r>   10.9095    0.0000 </r>
       <r>   10.9122    0.0000 </r>
       <r>   10.9126    0.0000 </r>
       <r>   10.9173    0.0000 </r>
      </set>
     </set>
    </set>
   </array>
  </eigenvalues>
  <separator name="orbital magnetization" >
   <v name="MAGDIPOLOUT">      0.00000000      0.00000000      0.00000000</v>
  </separator>
  <dos>
   <i name="efermi">    -10.10361186 </i>
   <total>
    <array>
     <dimension dim="1">gridpoints</dimension>
     <dimension dim="2">spin</dimension>
     <field>energy</field>
     <field>total</field>
     <field>integrated</field>
     <set>
      <set comment="spin 1">
       <r>   -19.5447     0.0000     0.0000 </r>
       <r>   -19.4256     0.0000     0.0000 </r>
       <r>   -19.3064     0.0000     0.0000 </r>
       <r>   -19.1873     0.0000     0.0000 </r>
       <r>   -19.0682     0.0000     0.0000 </r>
       <r>   -18.9490     0.0000     0.0000 </r>
       <r>   -18.8299     0.0000     0.0000 </r>
       <r>   -18.7108     0.0000     0.0000 </r>
       <r>   -18.5917     0.0000     0.0000 </r>
       <r>   -18.4725     0.0000     0.0000 </r>
       <r>   -18.3534     0.0000     0.0000 </r>
       <r>   -18.2343     0.0000     0.0000 </r>
       <r>   -18.1151     0.0000     0.0000 </r>
       <r>   -17.9960     0.0000     0.0000 </r>
       <r>   -17.8769     0.0337     0.0040 </r>
       <r>   -17.7577     0.3997     0.0754 </r>
       <r>   -17.6386     0.1513     0.1252 </r>
       <r>   -17.5195     0.9508     0.2918 </r>
       <r>   -17.4003     0.1420     0.3383 </r>
       <r>   -17.2812     1.3841     0.5419 </r>
       <r>   -17.1621     0.9103     0.6600 </r>
       <r>   -17.0430     0.9852     0.8277 </r>
       <r>   -16.9238     0.6405     1.0088 </r>
       <r>   -16.8047     1.4431     1.1997 </r>
       <r>   -16.6856     1.2843     1.4109 </r>
       <r>   -16.5664     1.1838     1.6529 </r>
       <r>   -16.4473     1.0833     1.8314 </r>
       <r>   -16.3282     1.4125     2.0849 </r>
       <r>   -16.2090     1.6889     2.3639 </r>
       <r>   -16.0899     2.5617     2.7139 </r>
       <r>   -15.9708     0.8975     2.8807 </r>
       <r>   -15.8517     1.6178     3.1094 </r>
       <r>   -15.7325     2.1107     3.5332 </r>
       <r>   -15.6134     2.3510     3.8634 </r>
       <r>   -15.4943     1.2100     4.0767 </r>
       <r>   -15.3751     1.3540     4.4272 </r>
       <r>   -15.2560     2.8460     4.8668 </r>
       <r>   -15.1369     1.4577     5.1935 </r>
       <r>   -15.0177     2.1740     5.4931 </r>
       <r>   -14.8986     1.8377     5.8975 </r>
       <r>   -14.7795     3.4245     6.4119 </r>
       <r>   -14.6603     1.7831     6.7561 </r>
       <r>   -14.5412     2.7550     7.2290 </r>
       <r>   -14.4221     2.2039     7.6395 </r>
       <r>   -14.3030     2.1746     8.0329 </r>
       <r>   -14.1838     2.6879     8.5623 </r>
       <r>   -14.0647     3.6722     9.1319 </r>
       <r>   -13.9456     2.6943     9.6027 </r>
       <r>   -13.8264     2.8801    10.1407 </r>
       <r>   -13.7073     2.8783    10.6723 </r>
       <r>   -13.5882     2.2902    11.1339 </r>
       <r>   -13.4690     5.7184    12.0106 </r>
       <r>   -13.3499     3.9560    12.6181 </r>
       <r>   -13.2308     2.9935    13.0907 </r>
       <r>   -13.1117     4.8930    13.8567 </r>
       <r>   -12.9925     5.1477    14.7045 </r>
       <r>   -12.8734     4.7170    15.3199 </r>
       <r>   -12.7543     4.6634    16.1230 </r>
       <r>   -12.6351     4.0667    16.9091 </r>
       <r>   -12.5160     6.7470    17.9189 </r>
       <r>   -12.3969     6.6562    19.0191 </r>
       <r>   -12.2777     6.1049    19.8820 </r>
       <r>   -12.1586     6.6870    21.1260 </r>
       <r>   -12.0395     7.7430    22.3827 </r>
       <r>   -11.9203     9.6885    23.9836 </r>
       <r>   -11.8012     6.8348    25.2706 </r>
       <r>   -11.6821     8.4659    26.5998 </r>
       <r>   -11.5630     8.9773    28.0576 </r>
       <r>   -11.4438     8.2887    29.4993 </r>
       <r>   -11.3247     7.8868    31.0467 </r>
       <r>   -11.2056     8.6097    32.3868 </r>
       <r>   -11.0864     8.7345    34.0048 </r>
       <r>   -10.9673     9.3048    35.6680 </r>
       <r>   -10.8482     8.5889    37.2256 </r>
       <r>   -10.7290    10.0300    38.9607 </r>
       <r>   -10.6099    11.2956    40.9528 </r>
       <r>   -10.4908    15.0189    43.4598 </r>
       <r>   -10.3717    14.6576    46.1589 </r>
       <r>   -10.2525     6.4247    47.7178 </r>
       <r>   -10.1334     0.5330    48.0000 </r>
       <r>   -10.0143     0.0000    48.0000 </r>
       <r>    -9.8951     0.0000    48.0000 </r>
       <r>    -9.7760     0.0000    48.0000 </r>
       <r>    -9.6569     0.0000    48.0000 </r>
       <r>    -9.5377     0.0000    48.0000 </r>
       <r>    -9.4186     0.0000    48.0000 </r>
       <r>    -9.2995     0.0000    48.0000 </r>
       <r>    -9.1804     0.0000    48.0000 </r>
       <r>    -9.0612     0.0000    48.0000 </r>
       <r>    -8.9421     0.0000    48.0000 </r>
       <r>    -8.8230     0.0000    48.0000 </r>
       <r>    -8.7038     0.0000    48.0000 </r>
       <r>    -8.5847     0.0000    48.0000 </r>
       <r>    -8.4656     0.0000    48.0000 </r>
       <r>    -8.3464     0.0000    48.0000 </r>
       <r>    -8.2273     0.0000    48.0000 </r>
       <r>    -8.1082     0.0000    48.0000 </r>
       <r>    -7.9890     0.0000    48.0000 </r>
       <r>    -7.8699     0.0000    48.0000 </r>
       <r>    -7.7508     0.0000    48.0000 </r>
       <r>    -7.6317     0.0000    48.0000 </r>
       <r>    -7.5125     0.0000    48.0000 </r>
       <r>    -7.3934     0.0000    48.0000 </r>
       <r>    -7.2743     0.0000    48.0000 </r>
       <r>    -7.1551     0.0000    48.0000 </r>
       <r>    -7.0360     0.0000    48.0000 </r>
       <r>    -6.9169     0.0000    48.0000 </r>
       <r>    -6.7977     0.0000    48.0000 </r>
       <r>    -6.6786     0.0000    48.0000 </r>
       <r>    -6.5595     0.0000    48.0000 </r>
       <r>    -6.4404     0.0000    48.0000 </r>
       <r>    -6.3212     0.0000    48.0000 </r>
       <r>    -6.2021     0.0000    48.0000 </r>
       <r>    -6.0830     0.0000    48.0000 </r>
       <r>    -5.9638     0.0000    48.0000 </r>
       <r>    -5.8447     0.0000    48.0000 </r>
       <r>    -5.7256     0.0000    48.0000 </r>
       <r>    -5.6064     0.0000    48.0000 </r>
       <r>    -5.4873     0.0000    48.0000 </r>
       <r>    -5.3682     0.0000    48.0000 </r>
       <r>    -5.2490     0.0000    48.0000 </r>
       <r>    -5.1299     0.0000    48.0000 </r>
       <r>    -5.0108     0.0000    48.0000 </r>
       <r>    -4.8917     0.0000    48.0000 </r>
       <r>    -4.7725     0.0000    48.0000 </r>
       <r>    -4.6534     0.0000    48.0000 </r>
       <r>    -4.5343     0.0000    48.0000 </r>
       <r>    -4.4151     0.0000    48.0000 </r>
       <r>    -4.2960     0.0000    48.0000 </r>
       <r>    -4.1769     0.0000    48.0000 </r>
       <r>    -4.0577     0.0000    48.0000 </r>
       <r>    -3.9386     0.0000    48.0000 </r>
       <r>    -3.8195     0.0000    48.0000 </r>
       <r>    -3.7004     0.0000    48.0000 </r>
       <r>    -3.5812     0.0000    48.0000 </r>
       <r>    -3.4621     0.0000    48.0000 </r>
       <r>    -3.3430     0.0000    48.0000 </r>
       <r>    -3.2238     0.0000    48.0000 </r>
       <r>    -3.1047     0.0000    48.0000 </r>
       <r>    -2.9856     0.0000    48.0000 </r>
       <r>    -2.8664     0.0000    48.0000 </r>
       <r>    -2.7473     0.0000    48.0000 </r>
       <r>    -2.6282     0.0000    48.0000 </r>
       <r>    -2.5091     0.0000    48.0000 </r>
       <r>    -2.3899     0.0000    48.0000 </r>
       <r>    -2.2708     0.0000    48.0000 </r>
       <r>    -2.1517     0.0000    48.0000 </r>
       <r>    -2.0325     0.0000    48.0000 </r>
       <r>    -1.9134     0.0000    48.0000 </r>
       <r>    -1.7943     0.0000    48.0000 </r>
       <r>    -1.6751     0.0000    48.0000 </r>
       <r>    -1.5560     0.0000    48.0000 </r>
       <r>    -1.4369     0.0000    48.0000 </r>
       <r>    -1.3177     0.0000    48.0000 </r>
       <r>    -1.1986     0.0000    48.0000 </r>
       <r>    -1.0795     0.0000    48.0000 </r>
       <r>    -0.9604     0.0000    48.0000 </r>
       <r>    -0.8412     0.0000    48.0000 </r>
       <r>    -0.7221     0.0000    48.0000 </r>
       <r>    -0.6030     0.0000    48.0000 </r>
       <r>    -0.4838     0.0000    48.0000 </r>
       <r>    -0.3647     0.0000    48.0000 </r>
       <r>    -0.2456     0.0000    48.0000 </r>
       <r>    -0.1264     0.0000    48.0000 </r>
       <r>    -0.0073     0.0000    48.0000 </r>
       <r>     0.1118     0.0000    48.0000 </r>
       <r>     0.2309     0.0000    48.0000 </r>
       <r>     0.3501     0.0000    48.0000 </r>
       <r>     0.4692     0.0000    48.0000 </r>
       <r>     0.5883     0.0000    48.0000 </r>
       <r>     0.7075     0.0000    48.0000 </r>
       <r>     0.8266     0.0000    48.0000 </r>
       <r>     0.9457     0.0000    48.0000 </r>
       <r>     1.0649     0.0000    48.0000 </r>
       <r>     1.1840     0.0000    48.0000 </r>
       <r>     1.3031     0.0000    48.0000 </r>
       <r>     1.4223     0.0000    48.0000 </r>
       <r>     1.5414     0.0000    48.0000 </r>
       <r>     1.6605     0.0000    48.0000 </r>
       <r>     1.7796     0.0000    48.0000 </r>
       <r>     1.8988     0.0000    48.0000 </r>
       <r>     2.0179     0.0000    48.0000 </r>
       <r>     2.1370     0.0000    48.0000 </r>
       <r>     2.2562     0.0000    48.0000 </r>
       <r>     2.3753     0.0000    48.0000 </r>
       <r>     2.4944     0.0000    48.0000 </r>
       <r>     2.6136     0.0000    48.0000 </r>
       <r>     2.7327     0.0000    48.0000 </r>
       <r>     2.8518     0.0000    48.0000 </r>
       <r>     2.9709     0.0000    48.0000 </r>
       <r>     3.0901     0.0000    48.0000 </r>
       <r>     3.2092     0.0000    48.0000 </r>
       <r>     3.3283     0.0000    48.0000 </r>
       <r>     3.4475     0.0000    48.0000 </r>
       <r>     3.5666     0.0000    48.0000 </r>
       <r>     3.6857     0.0000    48.0000 </r>
       <r>     3.8049     0.0000    48.0000 </r>
       <r>     3.9240     0.0000    48.0000 </r>
       <r>     4.0431     0.0000    48.0000 </r>
       <r>     4.1622     0.0000    48.0000 </r>
       <r>     4.2814     0.0000    48.0000 </r>
       <r>     4.4005     0.0000    48.0000 </r>
       <r>     4.5196     0.0000    48.0000 </r>
       <r>     4.6388     0.0000    48.0000 </r>
       <r>     4.7579     0.0000    48.0000 </r>
       <r>     4.8770     0.0000    48.0000 </r>
       <r>     4.9962     0.0000    48.0000 </r>
       <r>     5.1153     0.0000    48.0000 </r>
       <r>     5.2344     0.0000    48.0000 </r>
       <r>     5.3536     0.0000    48.0000 </r>
       <r>     5.4727     0.0000    48.0000 </r>
       <r>     5.5918     0.0000    48.0000 </r>
       <r>     5.7109     0.0000    48.0000 </r>
       <r>     5.8301     0.0000    48.0000 </r>
       <r>     5.9492     0.0000    48.0000 </r>
       <r>     6.0683     0.0000    48.0000 </r>
       <r>     6.1875     0.0000    48.0000 </r>
       <r>     6.3066     0.0000    48.0000 </r>
       <r>     6.4257     0.0000    48.0000 </r>
       <r>     6.5449     0.0000    48.0000 </r>
       <r>     6.6640     0.0000    48.0000 </r>
       <r>     6.7831     0.0000    48.0000 </r>
       <r>     6.9022     0.0000    48.0000 </r>
       <r>     7.0214     0.0000    48.0000 </r>
       <r>     7.1405     0.0000    48.0000 </r>
       <r>     7.2596     0.0000    48.0000 </r>
       <r>     7.3788     0.0000    48.0000 </r>
       <r>     7.4979     0.0000    48.0000 </r>
       <r>     7.6170     0.0000    48.0000 </r>
       <r>     7.7362     0.0000    48.0000 </r>
       <r>     7.8553     0.0000    48.0000 </r>
       <r>     7.9744     0.0000    48.0000 </r>
       <r>     8.0936     0.0000    48.0000 </r>
       <r>     8.2127     0.0312    48.0077 </r>
       <r>     8.3318     0.1332    48.0357 </r>
       <r>     8.4509     0.0667    48.0437 </r>
       <r>     8.5701     0.3018    48.1272 </r>
       <r>     8.6892     0.0000    48.1548 </r>
       <r>     8.8083     0.3026    48.1908 </r>
       <r>     8.9275     0.0449    48.2712 </r>
       <r>     9.0466     0.2652    48.3133 </r>
       <r>     9.1657     0.2218    48.3717 </r>
       <r>     9.2849     1.5408    48.5685 </r>
       <r>     9.4040     1.2462    48.8588 </r>
       <r>     9.5231     2.9130    49.3153 </r>
       <r>     9.6422     3.0689    49.8259 </r>
       <r>     9.7614     2.9638    50.3531 </r>
       <r>     9.8805     3.1361    50.8736 </r>
       <r>     9.9996     2.1708    51.2665 </r>
       <r>    10.1188     4.5376    52.0009 </r>
       <r>    10.2379     3.4732    52.7233 </r>
       <r>    10.3570     2.9879    53.2528 </r>
       <r>    10.4762     4.9039    54.0763 </r>
       <r>    10.5953     3.7739    54.7036 </r>
       <r>    10.7144     2.9422    55.3426 </r>
       <r>    10.8335     4.9931    56.1583 </r>
       <r>    10.9527     4.8993    57.1710 </r>
       <r>    11.0718     5.8719    58.2789 </r>
       <r>    11.1909     5.1324    59.1590 </r>
       <r>    11.3101     5.8499    60.0580 </r>
       <r>    11.4292     7.0028    61.1596 </r>
       <r>    11.5483     4.9335    62.0322 </r>
       <r>    11.6675     8.7502    63.3361 </r>
       <r>    11.7866     6.1881    64.4673 </r>
       <r>    11.9057     7.4371    65.7511 </r>
       <r>    12.0249     5.3247    66.8407 </r>
       <r>    12.1440     7.4916    68.1306 </r>
       <r>    12.2631     8.9221    69.5550 </r>
       <r>    12.3822     6.1230    70.6898 </r>
       <r>    12.5014     9.0989    72.1474 </r>
       <r>    12.6205     6.3786    73.4027 </r>
       <r>    12.7396     4.9778    74.2914 </r>
       <r>    12.8588     4.3452    75.0653 </r>
       <r>    12.9779     2.9292    75.5474 </r>
       <r>    13.0970     2.8760    76.1045 </r>
       <r>    13.2162     3.4084    76.7473 </r>
       <r>    13.3353     8.5350    78.0406 </r>
       <r>    13.4544     1.6023    78.4528 </r>
       <r>    13.5735     1.5736    78.6716 </r>
       <r>    13.6927     1.7112    78.9181 </r>
       <r>    13.8118     1.3447    79.1919 </r>
       <r>    13.9309     1.4263    79.4159 </r>
       <r>    14.0501     1.3366    79.6672 </r>
       <r>    14.1692     1.1930    79.9199 </r>
       <r>    14.2883     0.0000    79.9444 </r>
       <r>    14.4075     0.1336    79.9604 </r>
       <r>    14.5266     0.1037    79.9885 </r>
       <r>    14.6457     0.0333    80.0000 </r>
       <r>    14.7649     0.0000    80.0000 </r>
       <r>    14.8840     0.0000    80.0000 </r>
       <r>    15.0031     0.0000    80.0000 </r>
       <r>    15.1222     0.0000    80.0000 </r>
       <r>    15.2414     0.0000    80.0000 </r>
       <r>    15.3605     0.0000    80.0000 </r>
       <r>    15.4796     0.0000    80.0000 </r>
       <r>    15.5988     0.0000    80.0000 </r>
       <r>    15.7179     0.0000    80.0000 </r>
       <r>    15.8370     0.0000    80.0000 </r>
       <r>    15.9562     0.0000    80.0000 </r>
       <r>    16.0753     0.0000    80.0000 </r>
       <r>    16.1944     0.0000    80.0000 </r>
      </set>
     </set>
    </array>
   </total>
  </dos>
 </calculation>
 <structure name="finalpos" >
  <crystal>
   <varray name="basis" >
    <v>       5.86288214       3.38493658       0.00000000 </v>
    <v>      -0.97714702       1.69246829       0.00000000 </v>
    <v>       0.00000000       0.00000000       9.56312345 </v>
   </varray>
   <i name="volume">    126.52321019 </i>
   <varray name="rec_basis" >
    <v>       0.12792343       0.07385663      -0.00000000 </v>
    <v>      -0.25584686       0.44313976       0.00000000 </v>
    <v>       0.00000000      -0.00000000       0.10456835 </v>
   </varray>
  </crystal>
  <varray name="positions" >
   <v>       0.08249149       0.49915816       0.08249149 </v>
   <v>       0.33333333       0.00000000       0.08333333 </v>
   <v>       0.58333333       0.50000000       0.08333333 </v>
   <v>       0.83333333       0.00000000       0.08333333 </v>
   <v>       0.08333333       0.50000000       0.41666667 </v>
   <v>       0.33333333       0.00000000       0.41666667 </v>
   <v>       0.58333333       0.50000000       0.41666667 </v>
   <v>       0.83333333       0.00000000       0.41666667 </v>
   <v>       0.08333333       0.50000000       0.75000000 </v>
   <v>       0.33333333       0.00000000       0.75000000 </v>
   <v>       0.58333333       0.50000000       0.75000000 </v>
   <v>       0.83333333       0.00000000       0.75000000 </v>
   <v>       0.16666667       0.00000000       0.25000000 </v>
   <v>       0.41666667       0.50000000       0.25000000 </v>
   <v>       0.66666667       0.00000000       0.25000000 </v>
   <v>       0.91666667       0.50000000       0.25000000 </v>
   <v>       0.16666667       0.00000000       0.58333333 </v>
   <v>       0.41666667       0.50000000       0.58333333 </v>
   <v>       0.66666667       0.00000000       0.58333333 </v>
   <v>       0.91666667       0.50000000       0.58333333 </v>
   <v>       0.16666667       0.00000000       0.91666667 </v>
   <v>       0.41666667       0.50000000       0.91666667 </v>
   <v>       0.66666667       0.00000000       0.91666667 </v>
   <v>       0.91666667       0.50000000       0.91666667 </v>
  </varray>
 </structure>
</modeling>
