<?xml version="1.0" encoding="ISO-8859-1"?>
<modeling>
 <generator>
  <i name="program" type="string">vasp </i>
  <i name="version" type="string">6.4.3  </i>
  <i name="subversion" type="string">19Mar24 (build Jun 20 2024 15:56:09) complex                          parallel </i>
  <i name="platform" type="string">LinuxNV_CrayMPICH </i>
  <i name="date" type="string">2025 01 13 </i>
  <i name="time" type="string">17:51:28 </i>
 </generator>
 <incar>
  <i type="string" name="PREC">Accurate</i>
  <i type="int" name="IBRION">    -1</i>
  <i name="EDIFF">      0.00000001</i>
  <i type="int" name="NSW">     0</i>
  <i name="ENCUT">    500.00000000</i>
  <i type="logical" name="LREAL"> F  </i>
  <i type="int" name="ISMEAR">     0</i>
  <i name="SIGMA">      0.01000000</i>
  <i type="logical" name="LWAVE"> F  </i>
  <i type="logical" name="LCHARG"> F  </i>
 </incar>
 <primitive_cell>
  <structure name="primitive_cell" >
   <crystal>
    <varray name="basis" >
     <v>      -8.16555356       5.44370237       8.16555356 </v>
     <v>       2.72185119       0.00000000       2.72185119 </v>
     <v>       2.72185119       2.72185119       0.00000000 </v>
    </varray>
    <i name="volume">    161.31810740 </i>
    <varray name="rec_basis" >
     <v>      -0.04592463       0.04592463       0.04592463 </v>
     <v>       0.13777388      -0.13777388       0.22962313 </v>
     <v>       0.09184925       0.27554776      -0.09184925 </v>
    </varray>
   </crystal>
   <varray name="positions" >
    <v>       0.00078329       1.00000000       1.00000000 </v>
    <v>       0.25000000       0.25000000       0.50000000 </v>
    <v>       0.50000000       0.50000000       1.00000000 </v>
    <v>       0.75000000       0.75000000       0.50000000 </v>
    <v>       0.06250000       0.31250000       0.37500000 </v>
    <v>       0.31250000       0.56250000       0.87500000 </v>
    <v>       0.56250000       0.81250000       0.37500000 </v>
    <v>       0.81250000       0.06250000       0.87500000 </v>
   </varray>
  </structure>
  <varray name="primitive_index" >
   <v type="int" >        1 </v>
   <v type="int" >        2 </v>
   <v type="int" >        3 </v>
   <v type="int" >        4 </v>
   <v type="int" >        5 </v>
   <v type="int" >        6 </v>
   <v type="int" >        7 </v>
   <v type="int" >        8 </v>
  </varray>
 </primitive_cell>
 <kpoints>
  <generation param="Gamma">
   <v type="int" name="divisions">       3       13       13 </v>
   <v name="usershift">      0.00000000       0.00000000       0.00000000 </v>
   <v name="genvec1">      0.33333333       0.00000000       0.00000000 </v>
   <v name="genvec2">     -0.00000000       0.07692308      -0.00000000 </v>
   <v name="genvec3">     -0.00000000      -0.00000000       0.07692308 </v>
   <v name="shift">      0.00000000       0.00000000       0.00000000 </v>
  </generation>
  <varray name="kpointlist" >
   <v>       0.00000000       0.00000000       0.00000000 </v>
   <v>       0.33333333       0.00000000       0.00000000 </v>
   <v>       0.00000000       0.07692308       0.00000000 </v>
   <v>       0.33333333       0.07692308       0.00000000 </v>
   <v>      -0.33333333       0.07692308       0.00000000 </v>
   <v>       0.00000000       0.15384615       0.00000000 </v>
   <v>       0.33333333       0.15384615       0.00000000 </v>
   <v>      -0.33333333       0.15384615       0.00000000 </v>
   <v>       0.00000000       0.23076923       0.00000000 </v>
   <v>       0.33333333       0.23076923       0.00000000 </v>
   <v>      -0.33333333       0.23076923       0.00000000 </v>
   <v>       0.00000000       0.30769231       0.00000000 </v>
   <v>       0.33333333       0.30769231       0.00000000 </v>
   <v>      -0.33333333       0.30769231       0.00000000 </v>
   <v>       0.00000000       0.38461538       0.00000000 </v>
   <v>       0.33333333       0.38461538       0.00000000 </v>
   <v>      -0.33333333       0.38461538       0.00000000 </v>
   <v>       0.00000000       0.46153846       0.00000000 </v>
   <v>       0.33333333       0.46153846       0.00000000 </v>
   <v>      -0.33333333       0.46153846       0.00000000 </v>
   <v>       0.00000000       0.00000000       0.07692308 </v>
   <v>       0.33333333       0.00000000       0.07692308 </v>
   <v>      -0.33333333       0.00000000       0.07692308 </v>
   <v>       0.00000000       0.15384615       0.07692308 </v>
   <v>       0.33333333       0.15384615       0.07692308 </v>
   <v>       0.00000000       0.23076923       0.07692308 </v>
   <v>       0.33333333       0.23076923       0.07692308 </v>
   <v>      -0.33333333       0.23076923       0.07692308 </v>
   <v>       0.00000000       0.30769231       0.07692308 </v>
   <v>       0.33333333       0.30769231       0.07692308 </v>
   <v>      -0.33333333       0.30769231       0.07692308 </v>
   <v>       0.00000000       0.38461538       0.07692308 </v>
   <v>       0.33333333       0.38461538       0.07692308 </v>
   <v>      -0.33333333       0.38461538       0.07692308 </v>
   <v>       0.00000000       0.46153846       0.07692308 </v>
   <v>       0.33333333       0.46153846       0.07692308 </v>
   <v>      -0.33333333       0.46153846       0.07692308 </v>
   <v>       0.00000000      -0.46153846       0.07692308 </v>
   <v>       0.33333333      -0.46153846       0.07692308 </v>
   <v>      -0.33333333      -0.46153846       0.07692308 </v>
   <v>       0.00000000      -0.38461538       0.07692308 </v>
   <v>       0.33333333      -0.38461538       0.07692308 </v>
   <v>      -0.33333333      -0.38461538       0.07692308 </v>
   <v>       0.00000000      -0.30769231       0.07692308 </v>
   <v>       0.33333333      -0.30769231       0.07692308 </v>
   <v>      -0.33333333      -0.30769231       0.07692308 </v>
   <v>       0.00000000      -0.23076923       0.07692308 </v>
   <v>       0.33333333      -0.23076923       0.07692308 </v>
   <v>      -0.33333333      -0.23076923       0.07692308 </v>
   <v>       0.00000000      -0.15384615       0.07692308 </v>
   <v>       0.33333333      -0.15384615       0.07692308 </v>
   <v>      -0.33333333      -0.15384615       0.07692308 </v>
   <v>       0.00000000      -0.07692308       0.07692308 </v>
   <v>       0.33333333      -0.07692308       0.07692308 </v>
   <v>      -0.33333333      -0.07692308       0.07692308 </v>
   <v>       0.00000000       0.00000000       0.15384615 </v>
   <v>       0.33333333       0.00000000       0.15384615 </v>
   <v>      -0.33333333       0.00000000       0.15384615 </v>
   <v>       0.00000000       0.30769231       0.15384615 </v>
   <v>       0.33333333       0.30769231       0.15384615 </v>
   <v>       0.00000000       0.38461538       0.15384615 </v>
   <v>       0.33333333       0.38461538       0.15384615 </v>
   <v>      -0.33333333       0.38461538       0.15384615 </v>
   <v>       0.00000000       0.46153846       0.15384615 </v>
   <v>       0.33333333       0.46153846       0.15384615 </v>
   <v>      -0.33333333       0.46153846       0.15384615 </v>
   <v>       0.00000000      -0.46153846       0.15384615 </v>
   <v>       0.33333333      -0.46153846       0.15384615 </v>
   <v>      -0.33333333      -0.46153846       0.15384615 </v>
   <v>       0.00000000      -0.38461538       0.15384615 </v>
   <v>       0.33333333      -0.38461538       0.15384615 </v>
   <v>      -0.33333333      -0.38461538       0.15384615 </v>
   <v>       0.00000000      -0.30769231       0.15384615 </v>
   <v>       0.33333333      -0.30769231       0.15384615 </v>
   <v>      -0.33333333      -0.30769231       0.15384615 </v>
   <v>       0.00000000      -0.23076923       0.15384615 </v>
   <v>       0.33333333      -0.23076923       0.15384615 </v>
   <v>      -0.33333333      -0.23076923       0.15384615 </v>
   <v>       0.00000000      -0.15384615       0.15384615 </v>
   <v>       0.33333333      -0.15384615       0.15384615 </v>
   <v>      -0.33333333      -0.15384615       0.15384615 </v>
   <v>       0.00000000      -0.07692308       0.15384615 </v>
   <v>       0.33333333      -0.07692308       0.15384615 </v>
   <v>      -0.33333333      -0.07692308       0.15384615 </v>
   <v>       0.00000000       0.00000000       0.23076923 </v>
   <v>       0.33333333       0.00000000       0.23076923 </v>
   <v>      -0.33333333       0.00000000       0.23076923 </v>
   <v>       0.00000000       0.46153846       0.23076923 </v>
   <v>       0.33333333       0.46153846       0.23076923 </v>
   <v>       0.00000000      -0.46153846       0.23076923 </v>
   <v>       0.33333333      -0.46153846       0.23076923 </v>
   <v>      -0.33333333      -0.46153846       0.23076923 </v>
   <v>       0.00000000      -0.38461538       0.23076923 </v>
   <v>       0.33333333      -0.38461538       0.23076923 </v>
   <v>      -0.33333333      -0.38461538       0.23076923 </v>
   <v>       0.00000000      -0.30769231       0.23076923 </v>
   <v>       0.33333333      -0.30769231       0.23076923 </v>
   <v>      -0.33333333      -0.30769231       0.23076923 </v>
   <v>       0.00000000      -0.23076923       0.23076923 </v>
   <v>       0.33333333      -0.23076923       0.23076923 </v>
   <v>      -0.33333333      -0.23076923       0.23076923 </v>
   <v>       0.00000000      -0.15384615       0.23076923 </v>
   <v>       0.33333333      -0.15384615       0.23076923 </v>
   <v>      -0.33333333      -0.15384615       0.23076923 </v>
   <v>       0.00000000      -0.07692308       0.23076923 </v>
   <v>       0.33333333      -0.07692308       0.23076923 </v>
   <v>      -0.33333333      -0.07692308       0.23076923 </v>
   <v>       0.00000000       0.00000000       0.30769231 </v>
   <v>       0.33333333       0.00000000       0.30769231 </v>
   <v>      -0.33333333       0.00000000       0.30769231 </v>
   <v>       0.00000000      -0.38461538       0.30769231 </v>
   <v>       0.33333333      -0.38461538       0.30769231 </v>
   <v>       0.00000000      -0.30769231       0.30769231 </v>
   <v>       0.33333333      -0.30769231       0.30769231 </v>
   <v>      -0.33333333      -0.30769231       0.30769231 </v>
   <v>       0.00000000      -0.23076923       0.30769231 </v>
   <v>       0.33333333      -0.23076923       0.30769231 </v>
   <v>      -0.33333333      -0.23076923       0.30769231 </v>
   <v>       0.00000000      -0.15384615       0.30769231 </v>
   <v>       0.33333333      -0.15384615       0.30769231 </v>
   <v>      -0.33333333      -0.15384615       0.30769231 </v>
   <v>       0.00000000      -0.07692308       0.30769231 </v>
   <v>       0.33333333      -0.07692308       0.30769231 </v>
   <v>      -0.33333333      -0.07692308       0.30769231 </v>
   <v>       0.00000000       0.00000000       0.38461538 </v>
   <v>       0.33333333       0.00000000       0.38461538 </v>
   <v>      -0.33333333       0.00000000       0.38461538 </v>
   <v>       0.00000000      -0.23076923       0.38461538 </v>
   <v>       0.33333333      -0.23076923       0.38461538 </v>
   <v>       0.00000000      -0.15384615       0.38461538 </v>
   <v>       0.33333333      -0.15384615       0.38461538 </v>
   <v>      -0.33333333      -0.15384615       0.38461538 </v>
   <v>       0.00000000      -0.07692308       0.38461538 </v>
   <v>       0.33333333      -0.07692308       0.38461538 </v>
   <v>      -0.33333333      -0.07692308       0.38461538 </v>
   <v>       0.00000000       0.00000000       0.46153846 </v>
   <v>       0.33333333       0.00000000       0.46153846 </v>
   <v>      -0.33333333       0.00000000       0.46153846 </v>
   <v>       0.00000000      -0.07692308       0.46153846 </v>
   <v>       0.33333333      -0.07692308       0.46153846 </v>
  </varray>
  <varray name="weights" >
   <v>       0.00197239 </v>
   <v>       0.00394477 </v>
   <v>       0.00788955 </v>
   <v>       0.00788955 </v>
   <v>       0.00788955 </v>
   <v>       0.00788955 </v>
   <v>       0.00788955 </v>
   <v>       0.00788955 </v>
   <v>       0.00788955 </v>
   <v>       0.00788955 </v>
   <v>       0.00788955 </v>
   <v>       0.00788955 </v>
   <v>       0.00788955 </v>
   <v>       0.00788955 </v>
   <v>       0.00788955 </v>
   <v>       0.00788955 </v>
   <v>       0.00788955 </v>
   <v>       0.00788955 </v>
   <v>       0.00788955 </v>
   <v>       0.00788955 </v>
   <v>       0.00394477 </v>
   <v>       0.00394477 </v>
   <v>       0.00394477 </v>
   <v>       0.00394477 </v>
   <v>       0.00788955 </v>
   <v>       0.00788955 </v>
   <v>       0.00788955 </v>
   <v>       0.00788955 </v>
   <v>       0.00788955 </v>
   <v>       0.00788955 </v>
   <v>       0.00788955 </v>
   <v>       0.00788955 </v>
   <v>       0.00788955 </v>
   <v>       0.00788955 </v>
   <v>       0.00788955 </v>
   <v>       0.00788955 </v>
   <v>       0.00788955 </v>
   <v>       0.00788955 </v>
   <v>       0.00788955 </v>
   <v>       0.00788955 </v>
   <v>       0.00788955 </v>
   <v>       0.00788955 </v>
   <v>       0.00788955 </v>
   <v>       0.00788955 </v>
   <v>       0.00788955 </v>
   <v>       0.00788955 </v>
   <v>       0.00788955 </v>
   <v>       0.00788955 </v>
   <v>       0.00788955 </v>
   <v>       0.00788955 </v>
   <v>       0.00788955 </v>
   <v>       0.00788955 </v>
   <v>       0.00788955 </v>
   <v>       0.00788955 </v>
   <v>       0.00788955 </v>
   <v>       0.00394477 </v>
   <v>       0.00394477 </v>
   <v>       0.00394477 </v>
   <v>       0.00394477 </v>
   <v>       0.00788955 </v>
   <v>       0.00788955 </v>
   <v>       0.00788955 </v>
   <v>       0.00788955 </v>
   <v>       0.00788955 </v>
   <v>       0.00788955 </v>
   <v>       0.00788955 </v>
   <v>       0.00788955 </v>
   <v>       0.00788955 </v>
   <v>       0.00788955 </v>
   <v>       0.00788955 </v>
   <v>       0.00788955 </v>
   <v>       0.00788955 </v>
   <v>       0.00788955 </v>
   <v>       0.00788955 </v>
   <v>       0.00788955 </v>
   <v>       0.00788955 </v>
   <v>       0.00788955 </v>
   <v>       0.00788955 </v>
   <v>       0.00788955 </v>
   <v>       0.00788955 </v>
   <v>       0.00788955 </v>
   <v>       0.00788955 </v>
   <v>       0.00788955 </v>
   <v>       0.00788955 </v>
   <v>       0.00394477 </v>
   <v>       0.00394477 </v>
   <v>       0.00394477 </v>
   <v>       0.00394477 </v>
   <v>       0.00788955 </v>
   <v>       0.00788955 </v>
   <v>       0.00788955 </v>
   <v>       0.00788955 </v>
   <v>       0.00788955 </v>
   <v>       0.00788955 </v>
   <v>       0.00788955 </v>
   <v>       0.00788955 </v>
   <v>       0.00788955 </v>
   <v>       0.00788955 </v>
   <v>       0.00788955 </v>
   <v>       0.00788955 </v>
   <v>       0.00788955 </v>
   <v>       0.00788955 </v>
   <v>       0.00788955 </v>
   <v>       0.00788955 </v>
   <v>       0.00788955 </v>
   <v>       0.00788955 </v>
   <v>       0.00788955 </v>
   <v>       0.00394477 </v>
   <v>       0.00394477 </v>
   <v>       0.00394477 </v>
   <v>       0.00394477 </v>
   <v>       0.00788955 </v>
   <v>       0.00788955 </v>
   <v>       0.00788955 </v>
   <v>       0.00788955 </v>
   <v>       0.00788955 </v>
   <v>       0.00788955 </v>
   <v>       0.00788955 </v>
   <v>       0.00788955 </v>
   <v>       0.00788955 </v>
   <v>       0.00788955 </v>
   <v>       0.00788955 </v>
   <v>       0.00788955 </v>
   <v>       0.00788955 </v>
   <v>       0.00394477 </v>
   <v>       0.00394477 </v>
   <v>       0.00394477 </v>
   <v>       0.00394477 </v>
   <v>       0.00788955 </v>
   <v>       0.00788955 </v>
   <v>       0.00788955 </v>
   <v>       0.00788955 </v>
   <v>       0.00788955 </v>
   <v>       0.00788955 </v>
   <v>       0.00788955 </v>
   <v>       0.00394477 </v>
   <v>       0.00394477 </v>
   <v>       0.00394477 </v>
   <v>       0.00394477 </v>
   <v>       0.00788955 </v>
  </varray>
 </kpoints>
 <parameters>
  <separator name="general" >
   <i type="string" name="SYSTEM">unknown system</i>
   <i type="logical" name="LCOMPAT"> F  </i>
  </separator>
  <separator name="electronic" >
   <i type="string" name="PREC">accura</i>
   <i name="ENMAX">    500.00000000</i>
   <i name="ENAUG">    322.06900000</i>
   <i name="EDIFF">      0.00000001</i>
   <i type="int" name="IALGO">    38</i>
   <i type="int" name="IWAVPR">    10</i>
   <i type="int" name="NBANDS">    24</i>
   <i type="int" name="NBANDSLOW">    -1</i>
   <i type="int" name="NBANDSHIGH">    -1</i>
   <i name="NELECT">     32.00000000</i>
   <i type="int" name="TURBO">     0</i>
   <i type="int" name="IRESTART">     0</i>
   <i type="int" name="NREBOOT">     0</i>
   <i type="int" name="NMIN">     0</i>
   <i name="EREF">      0.00000000</i>
   <separator name="electronic smearing" >
    <i type="int" name="ISMEAR">     0</i>
    <i name="SIGMA">      0.01000000</i>
    <i name="KSPACING">      0.50000000</i>
    <i type="logical" name="KGAMMA"> T  </i>
    <i type="logical" name="KBLOWUP"> F  </i>
   </separator>
   <separator name="electronic projectors" >
    <i type="logical" name="LREAL"> F  </i>
    <v name="ROPT">      0.00000000</v>
    <i type="int" name="LMAXPAW">  -100</i>
    <i type="int" name="LMAXMIX">     2</i>
    <i type="logical" name="NLSPLINE"> F  </i>
   </separator>
   <separator name="electronic startup" >
    <i type="int" name="ISTART">     0</i>
    <i type="int" name="ICHARG">     2</i>
    <i type="int" name="INIWAV">     1</i>
   </separator>
   <separator name="electronic spin" >
    <i type="int" name="ISPIN">     1</i>
    <i type="logical" name="LNONCOLLINEAR"> F  </i>
    <v name="MAGMOM">      1.00000000      1.00000000      1.00000000      1.00000000      1.00000000      1.00000000      1.00000000      1.00000000</v>
    <i name="NUPDOWN">     -1.00000000</i>
    <i type="logical" name="LSORBIT"> F  </i>
    <v name="SAXIS">      0.00000000      0.00000000      1.00000000</v>
    <i type="logical" name="LSPIRAL"> F  </i>
    <v name="QSPIRAL">      0.00000000      0.00000000      0.00000000</v>
    <i type="logical" name="LZEROZ"> F  </i>
   </separator>
   <separator name="electronic exchange-correlation" >
    <i type="logical" name="LASPH"> F  </i>
   </separator>
   <separator name="electronic convergence" >
    <i type="int" name="NELM">    60</i>
    <i type="int" name="NELMDL">    -5</i>
    <i type="int" name="NELMIN">     2</i>
    <i name="ENINI">    500.00000000</i>
    <separator name="electronic convergence detail" >
     <i type="logical" name="LDIAG"> T  </i>
     <i type="logical" name="LSUBROT"> F  </i>
     <i name="WEIMIN">      0.00000000</i>
     <i name="EBREAK">      0.00000000</i>
     <i name="DEPER">      0.30000000</i>
     <i type="int" name="NRMM">     4</i>
     <i name="TIME">      0.40000000</i>
    </separator>
   </separator>
   <separator name="electronic mixer" >
    <i name="AMIX">      0.40000000</i>
    <i name="BMIX">      1.00000000</i>
    <i name="AMIN">      0.10000000</i>
    <i name="AMIX_MAG">      1.60000000</i>
    <i name="BMIX_MAG">      1.00000000</i>
    <separator name="electronic mixer details" >
     <i type="int" name="IMIX">     4</i>
     <i type="logical" name="MIXFIRST"> F  </i>
     <i type="int" name="MAXMIX">   -45</i>
     <i name="WC">    100.00000000</i>
     <i type="int" name="INIMIX">     1</i>
     <i type="int" name="MIXPRE">     1</i>
     <i type="int" name="MREMOVE">     5</i>
    </separator>
   </separator>
   <separator name="electronic dipolcorrection" >
    <i type="logical" name="LDIPOL"> F  </i>
    <i type="logical" name="LMONO"> F  </i>
    <i type="int" name="IDIPOL">     0</i>
    <i name="EPSILON">      1.00000000</i>
    <v name="DIPOL">   -100.00000000   -100.00000000   -100.00000000</v>
    <i name="EFIELD">      0.00000000</i>
    <i type="logical" name="LVACPOTAV"> F  </i>
   </separator>
  </separator>
  <separator name="grids" >
   <i type="int" name="NGX">    96</i>
   <i type="int" name="NGY">    28</i>
   <i type="int" name="NGZ">    28</i>
   <i type="int" name="NGXF">   192</i>
   <i type="int" name="NGYF">    56</i>
   <i type="int" name="NGZF">    56</i>
   <i type="logical" name="ADDGRID"> F  </i>
  </separator>
  <separator name="ionic" >
   <i type="int" name="NSW">     0</i>
   <i type="int" name="IBRION">    -1</i>
   <i type="int" name="MDALGO">     0</i>
   <i type="int" name="ISIF">     2</i>
   <i name="PSTRESS">      0.00000000</i>
   <i name="EDIFFG">      0.00000010</i>
   <i type="int" name="NFREE">     0</i>
   <i name="POTIM">      0.50000000</i>
   <i name="SMASS">     -3.00000000</i>
   <i name="SCALEE">      1.00000000</i>
  </separator>
  <separator name="ionic md" >
   <i name="TEBEG">      0.00010000</i>
   <i name="TEEND">      0.00010000</i>
   <i type="int" name="NBLOCK">     1</i>
   <i type="int" name="KBLOCK">     1</i>
   <i type="int" name="NPACO">   256</i>
   <i name="APACO">     10.00000000</i>
  </separator>
  <separator name="symmetry" >
   <i type="int" name="ISYM">     2</i>
   <i name="SYMPREC">      0.00001000</i>
  </separator>
  <separator name="dos" >
   <i type="int" name="LORBIT">     0</i>
   <v name="RWIGS">     -1.00000000</v>
   <i type="int" name="NEDOS">   301</i>
   <i name="EMIN">     10.00000000</i>
   <i name="EMAX">    -10.00000000</i>
   <i name="EFERMI">      0.00000000</i>
  </separator>
  <separator name="writing" >
   <i type="int" name="NWRITE">     2</i>
   <i type="logical" name="LWAVE"> F  </i>
   <i type="logical" name="LDOWNSAMPLE"> F  </i>
   <i type="logical" name="LCHARG"> F  </i>
   <i type="logical" name="LPARD"> F  </i>
   <i type="logical" name="LVTOT"> F  </i>
   <i type="logical" name="LVHAR"> F  </i>
   <i type="logical" name="LELF"> F  </i>
   <i type="logical" name="LOPTICS"> F  </i>
   <v name="STM">      0.00000000      0.00000000      0.00000000      0.00000000      0.00000000      0.00000000      0.00000000</v>
  </separator>
  <separator name="performance" >
   <i type="int" name="NPAR">     8</i>
   <i type="int" name="NSIM">     4</i>
   <i type="int" name="NBLK">    -1</i>
   <i type="logical" name="LPLANE"> T  </i>
   <i type="logical" name="LSCALAPACK"> T  </i>
   <i type="logical" name="LSCAAWARE"> F  </i>
   <i type="logical" name="LSCALU"> F  </i>
   <i type="logical" name="LASYNC"> F  </i>
   <i type="logical" name="LORBITALREAL"> F  </i>
  </separator>
  <separator name="miscellaneous" >
   <i type="int" name="IDIOT">     3</i>
   <i type="int" name="PHON_NSTRUCT">    -1</i>
   <i type="logical" name="LMUSIC"> F  </i>
   <v name="POMASS">     28.08500000</v>
   <v name="DARWINR">      0.00000000</v>
   <v name="DARWINV">      1.00000000</v>
   <i type="logical" name="LCORR"> T  </i>
  </separator>
  <i type="logical" name="GGA_COMPAT"> T  </i>
  <i type="logical" name="LBERRY"> F  </i>
  <i type="int" name="ICORELEVEL">     0</i>
  <i type="logical" name="LDAU"> F  </i>
  <i type="int" name="I_CONSTRAINED_M">     0</i>
  <separator name="electronic exchange-correlation" >
   <i type="string" name="GGA    ">PE</i>
   <i type="string" name="XC_C">1</i>
   <i type="int" name="VOSKOWN">     0</i>
   <i type="logical" name="LHFCALC"> F  </i>
   <i type="string" name="PRECFOCK"></i>
   <i type="logical" name="LSYMGRAD"> F  </i>
   <i type="logical" name="LHFONE"> F  </i>
   <i type="logical" name="LRHFCALC"> F  </i>
   <i type="logical" name="LTHOMAS"> F  </i>
   <i type="logical" name="LMODELHF"> F  </i>
   <i type="logical" name="LFOCKACE"> F  </i>
   <i name="ENCUT4O">     -1.00000000</i>
   <i type="int" name="EXXOEP">     0</i>
   <i type="int" name="FOURORBIT">     0</i>
   <i name="AEXX">      0.00000000</i>
   <i name="HFALPHA">      0.00000000</i>
   <i name="MCALPHA">      0.00000000</i>
   <i name="ALDAX">      1.00000000</i>
   <i name="AGGAX">      1.00000000</i>
   <i name="AMGGAX">      1.00000000</i>
   <i name="ALDAC">      1.00000000</i>
   <i name="AGGAC">      1.00000000</i>
   <i name="AMGGAC">      1.00000000</i>
   <i type="int" name="NKREDX">     1</i>
   <i type="int" name="NKREDY">     1</i>
   <i type="int" name="NKREDZ">     1</i>
   <i type="logical" name="SHIFTRED"> F  </i>
   <i type="logical" name="ODDONLY"> F  </i>
   <i type="logical" name="EVENONLY"> F  </i>
   <i type="int" name="LMAXFOCK">     0</i>
   <i type="int" name="NMAXFOCKAE">     0</i>
   <i type="logical" name="LFOCKAEDFT"> F  </i>
   <i name="HFSCREEN">      0.00000000</i>
   <i name="HFSCREENC">      0.00000000</i>
   <i type="int" name="NBANDSGWLOW">     0</i>
  </separator>
  <separator name="vdW DFT" >
   <i type="logical" name="LUSE_VDW"> F  </i>
   <i type="int" name="IVDW_NL">    -1</i>
   <i type="logical" name="LSPIN_VDW"> F  </i>
   <i name="ZAB_VDW">     -0.84910000</i>
   <i name="GAMMA_VDW">      1.39626340</i>
   <i name="ALPHA_VDW">      0.00000000</i>
   <i name="PARAM1">      0.12340000</i>
   <i name="PARAM2">      1.00000000</i>
   <i name="BPARAM">      6.30000000</i>
   <i name="CPARAM">      0.00930000</i>
  </separator>
  <separator name="model GW" >
   <i type="int" name="MODEL_GW">     0</i>
   <i name="MODEL_EPS0">     12.09885805</i>
   <i name="MODEL_ALPHA">      1.00000000</i>
  </separator>
  <separator name="linear response parameters" >
   <i type="logical" name="LEPSILON"> F  </i>
   <i type="logical" name="LRPA"> F  </i>
   <i type="logical" name="LNABLA"> F  </i>
   <i type="logical" name="LVEL"> F  </i>
   <i name="CSHIFT">      0.10000000</i>
   <i name="OMEGAMAX">     -1.00000000</i>
   <i name="DEG_THRESHOLD">      0.00200000</i>
   <i name="RTIME">     -0.10000000</i>
   <i name="WPLASMAI">      0.00000000</i>
   <v name="DFIELD">      0.00000000      0.00000000      0.00000000</v>
   <v name="WPLASMA">      0.00000000      0.00000000      0.00000000      0.00000000      0.00000000      0.00000000      0.00000000      0.00000000      0.00000000</v>
  </separator>
  <separator name="orbital magnetization" >
   <i type="logical" name="NUCIND"> F  </i>
   <v name="MAGPOS">      0.00000000      0.00000000      0.00000000</v>
   <i type="logical" name="LNICSALL"> T  </i>
   <i type="logical" name="ORBITALMAG"> F  </i>
   <i type="logical" name="LMAGBLOCH"> F  </i>
   <i type="logical" name="LCHIMAG"> F  </i>
   <i type="logical" name="LGAUGE"> T  </i>
   <i type="int" name="MAGATOM">     0</i>
   <v name="MAGDIPOL">      0.00000000      0.00000000      0.00000000</v>
   <v name="AVECCONST">      0.00000000      0.00000000      0.00000000</v>
  </separator>
  <separator name="response functions" >
   <i type="logical" name="LALL_IN_ONE"> F  </i>
   <i type="int" name="IALL_IN_ONE">    -1</i>
   <i type="int" name="NBANDS_WAVE">    -1</i>
   <i type="logical" name="LFINITE_TEMPERATURE"> F  </i>
   <i type="logical" name="LADDER"> F  </i>
   <i type="logical" name="LRPAFORCE"> F  </i>
   <i type="logical" name="LFXC"> F  </i>
   <i type="logical" name="LHARTREE"> T  </i>
   <i type="int" name="IBSE">     0</i>
   <v type="int" name="KPOINT">    -1     0     0     0</v>
   <i type="logical" name="LTCTC"> F  </i>
   <i type="logical" name="LTCTE"> F  </i>
   <i type="logical" name="LTETE"> F  </i>
   <i type="logical" name="LTRIPLET"> F  </i>
   <i type="logical" name="LFXCEPS"> F  </i>
   <i type="logical" name="LFXHEG"> F  </i>
   <i type="int" name="NATURALO">     2</i>
   <i type="logical" name="LHOLEGF"> F  </i>
   <i type="logical" name="L2ORDER"> F  </i>
   <i type="logical" name="LDMP1"> F  </i>
   <i type="logical" name="LMP2LT"> F  </i>
   <i type="logical" name="LSMP2LT"> F  </i>
   <i type="logical" name="LGWLF"> F  </i>
   <i name="ENCUTGW">     -1.60000002</i>
   <i name="ENCUTGWSOFT">     -1.60000002</i>
   <i name="ENCUTLF">     -1.00000000</i>
   <i type="logical" name="ESF_SPLINES"> F  </i>
   <i name="ESF_CONV">      0.01000000</i>
   <i type="int" name="ESF_NINTER">    15</i>
   <i type="int" name="LMAXMP2">    -1</i>
   <i name="SCISSOR">      0.00000000</i>
   <i type="int" name="NOMEGA">     0</i>
   <i type="int" name="NOMEGAR">     0</i>
   <i type="int" name="NBANDSGW">    -1</i>
   <i type="int" name="NBANDSO">    -1</i>
   <i type="int" name="NBANDSV">    -1</i>
   <i type="int" name="NELMGW">     1</i>
   <i type="int" name="NELMHF">     1</i>
   <i type="int" name="DIM">     3</i>
   <i type="int" name="IESPILON">     4</i>
   <i type="int" name="ANTIRES">     0</i>
   <i name="OMEGAMAX">    -30.00000000</i>
   <i name="OMEGAMIN">    -30.00000000</i>
   <i name="OMEGATL">   -200.00000000</i>
   <i type="int" name="OMEGAGRID">     0</i>
   <i name="CSHIFT">     -0.10000000</i>
   <i type="logical" name="LSELFENERGY"> F  </i>
   <i type="logical" name="LSPECTRAL"> F  </i>
   <i type="logical" name="LSPECTRALGW"> F  </i>
   <i type="logical" name="LSINGLES"> F  </i>
   <i type="logical" name="LFERMIGW"> F  </i>
   <i type="logical" name="ODDONLYGW"> F  </i>
   <i type="logical" name="EVENONLYGW"> F  </i>
   <i type="int" name="NKREDLFX">     1</i>
   <i type="int" name="NKREDLFY">     1</i>
   <i type="int" name="NKREDLFZ">     1</i>
   <i type="int" name="MAXMEM">  2800</i>
   <i type="int" name="TELESCOPE">     0</i>
   <i type="int" name="NTAUPAR">    -1</i>
   <i type="int" name="NOMEGAPAR">    -1</i>
   <i name="DAMP_NEWTON">      0.80000001</i>
   <i name="LAMBDA">      1.00000000</i>
  </separator>
  <separator name="External order field" >
   <i name="OFIELD_KAPPA">      0.00000000</i>
   <v name="OFIELD_K">      0.00000000      0.00000000      0.00000000</v>
   <i name="OFIELD_Q6_NEAR">      0.00000000</i>
   <i name="OFIELD_Q6_FAR">      0.00000000</i>
   <i name="OFIELD_A">      0.00000000</i>
  </separator>
  <separator name="optional k-points parameters" >
   <i type="int" name="KPOINTS_OPT_MODE">     1</i>
   <i type="logical" name="LKPOINTS_OPT"> F  </i>
  </separator>
 </parameters>
 <atominfo>
  <atoms>       8 </atoms>
  <types>       1 </types>
  <array name="atoms" >
   <dimension dim="1">ion</dimension>
   <field type="string">element</field>
   <field type="int">atomtype</field>
   <set>
    <rc><c>Si</c><c>   1</c></rc>
    <rc><c>Si</c><c>   1</c></rc>
    <rc><c>Si</c><c>   1</c></rc>
    <rc><c>Si</c><c>   1</c></rc>
    <rc><c>Si</c><c>   1</c></rc>
    <rc><c>Si</c><c>   1</c></rc>
    <rc><c>Si</c><c>   1</c></rc>
    <rc><c>Si</c><c>   1</c></rc>
   </set>
  </array>
  <array name="atomtypes" >
   <dimension dim="1">type</dimension>
   <field type="int">atomspertype</field>
   <field type="string">element</field>
   <field>mass</field>
   <field>valence</field>
   <field type="string">pseudopotential</field>
   <set>
    <rc><c>   8</c><c>Si</c><c>     28.08500000</c><c>      4.00000000</c><c>  PAW_PBE Si 05Jan2001                  </c></rc>
   </set>
  </array>
 </atominfo>
 <structure name="initialpos" >
  <crystal>
   <varray name="basis" >
    <v>      -8.16555356       5.44370237       8.16555356 </v>
    <v>       2.72185119       0.00000000       2.72185119 </v>
    <v>       2.72185119       2.72185119       0.00000000 </v>
   </varray>
   <i name="volume">    161.31810740 </i>
   <varray name="rec_basis" >
    <v>      -0.04592463       0.04592463       0.04592463 </v>
    <v>       0.13777388      -0.13777388       0.22962313 </v>
    <v>       0.09184925       0.27554776      -0.09184925 </v>
   </varray>
  </crystal>
  <varray name="positions" >
   <v>       0.00078329       0.00000000       0.00000000 </v>
   <v>       0.25000000       0.25000000       0.50000000 </v>
   <v>       0.50000000       0.50000000       0.00000000 </v>
   <v>       0.75000000       0.75000000       0.50000000 </v>
   <v>       0.06250000       0.31250000       0.37500000 </v>
   <v>       0.31250000       0.56250000       0.87500000 </v>
   <v>       0.56250000       0.81250000       0.37500000 </v>
   <v>       0.81250000       0.06250000       0.87500000 </v>
  </varray>
 </structure>
 <calculation>
  <scstep>
   <time name="dav">    0.74    0.74</time>
   <time name="total">    0.76    0.76</time>
   <energy>
    <i name="alphaZ">     13.35522965 </i>
    <i name="ewald">   -911.94922232 </i>
    <i name="hartreedc">    -44.46191789 </i>
    <i name="XCdc">    -74.52612071 </i>
    <i name="pawpsdc">    704.99039692 </i>
    <i name="pawaedc">   -564.24414232 </i>
    <i name="eentropy">     -0.00001738 </i>
    <i name="bandstr">    119.75689238 </i>
    <i name="atom">    824.53005375 </i>
    <i name="e_fr_energy">     67.45115209 </i>
    <i name="e_wo_entrp">     67.45116946 </i>
    <i name="e_0_energy">     67.45116077 </i>
   </energy>
  </scstep>
  <scstep>
   <time name="dav">    0.87    0.88</time>
   <time name="total">    0.87    0.88</time>
   <energy>
    <i name="e_fr_energy">    -38.85190550 </i>
    <i name="e_wo_entrp">    -38.85187003 </i>
    <i name="e_0_energy">    -38.85188777 </i>
   </energy>
  </scstep>
  <scstep>
   <time name="dav">    0.87    0.88</time>
   <time name="total">    0.87    0.88</time>
   <energy>
    <i name="e_fr_energy">    -43.99771457 </i>
    <i name="e_wo_entrp">    -43.99771457 </i>
    <i name="e_0_energy">    -43.99771457 </i>
   </energy>
  </scstep>
  <scstep>
   <time name="dav">    0.83    0.83</time>
   <time name="total">    0.83    0.83</time>
   <energy>
    <i name="e_fr_energy">    -44.09125213 </i>
    <i name="e_wo_entrp">    -44.09125213 </i>
    <i name="e_0_energy">    -44.09125213 </i>
   </energy>
  </scstep>
  <scstep>
   <time name="dav">    0.87    0.87</time>
   <time name="total">    0.90    0.91</time>
   <energy>
    <i name="e_fr_energy">    -44.09352269 </i>
    <i name="e_wo_entrp">    -44.09352269 </i>
    <i name="e_0_energy">    -44.09352269 </i>
   </energy>
  </scstep>
  <scstep>
   <time name="dav">    0.80    0.80</time>
   <time name="total">    0.85    0.85</time>
   <energy>
    <i name="e_fr_energy">    -43.60687322 </i>
    <i name="e_wo_entrp">    -43.60687322 </i>
    <i name="e_0_energy">    -43.60687322 </i>
   </energy>
  </scstep>
  <scstep>
   <time name="dav">    0.81    0.81</time>
   <time name="total">    0.86    0.86</time>
   <energy>
    <i name="e_fr_energy">    -43.38598833 </i>
    <i name="e_wo_entrp">    -43.38598833 </i>
    <i name="e_0_energy">    -43.38598833 </i>
   </energy>
  </scstep>
  <scstep>
   <time name="dav">    0.82    0.82</time>
   <time name="total">    0.87    0.87</time>
   <energy>
    <i name="e_fr_energy">    -43.38894861 </i>
    <i name="e_wo_entrp">    -43.38894861 </i>
    <i name="e_0_energy">    -43.38894861 </i>
   </energy>
  </scstep>
  <scstep>
   <time name="dav">    0.87    0.87</time>
   <time name="total">    0.91    0.92</time>
   <energy>
    <i name="e_fr_energy">    -43.38985896 </i>
    <i name="e_wo_entrp">    -43.38985896 </i>
    <i name="e_0_energy">    -43.38985896 </i>
   </energy>
  </scstep>
  <scstep>
   <time name="dav">    0.81    0.81</time>
   <time name="total">    0.86    0.86</time>
   <energy>
    <i name="e_fr_energy">    -43.39011058 </i>
    <i name="e_wo_entrp">    -43.39011058 </i>
    <i name="e_0_energy">    -43.39011058 </i>
   </energy>
  </scstep>
  <scstep>
   <time name="dav">    0.91    0.91</time>
   <time name="total">    0.95    0.95</time>
   <energy>
    <i name="e_fr_energy">    -43.39010765 </i>
    <i name="e_wo_entrp">    -43.39010765 </i>
    <i name="e_0_energy">    -43.39010765 </i>
   </energy>
  </scstep>
  <scstep>
   <time name="dav">    0.83    0.83</time>
   <time name="total">    0.88    0.88</time>
   <energy>
    <i name="e_fr_energy">    -43.39010920 </i>
    <i name="e_wo_entrp">    -43.39010920 </i>
    <i name="e_0_energy">    -43.39010920 </i>
   </energy>
  </scstep>
  <scstep>
   <time name="dav">    0.85    0.85</time>
   <time name="total">    0.90    0.90</time>
   <energy>
    <i name="e_fr_energy">    -43.39010918 </i>
    <i name="e_wo_entrp">    -43.39010918 </i>
    <i name="e_0_energy">    -43.39010918 </i>
   </energy>
  </scstep>
  <scstep>
   <time name="dav">    0.77    0.77</time>
   <time name="total">    0.82    0.82</time>
   <energy>
    <i name="e_fr_energy">    -43.39010919 </i>
    <i name="e_wo_entrp">    -43.39010919 </i>
    <i name="e_0_energy">    -43.39010919 </i>
   </energy>
  </scstep>
  <scstep>
   <time name="dav">    0.68    0.68</time>
   <time name="total">    0.69    0.69</time>
   <energy>
    <i name="alphaZ">     13.35522965 </i>
    <i name="ewald">   -911.94922232 </i>
    <i name="hartreedc">    -60.02890548 </i>
    <i name="XCdc">    -71.99041940 </i>
    <i name="pawpsdc">   3421.37000724 </i>
    <i name="pawaedc">  -3281.49322548 </i>
    <i name="eentropy">     -0.00000000 </i>
    <i name="bandstr">     22.81637286 </i>
    <i name="atom">    824.53005375 </i>
    <i name="e_fr_energy">    -43.39010919 </i>
    <i name="e_wo_entrp">    -43.39010919 </i>
    <i name="e_0_energy">    -43.39010919 </i>
   </energy>
  </scstep>
  <structure>
   <crystal>
    <varray name="basis" >
     <v>      -8.16555356       5.44370237       8.16555356 </v>
     <v>       2.72185119       0.00000000       2.72185119 </v>
     <v>       2.72185119       2.72185119       0.00000000 </v>
    </varray>
    <i name="volume">    161.31810740 </i>
    <varray name="rec_basis" >
     <v>      -0.04592463       0.04592463       0.04592463 </v>
     <v>       0.13777388      -0.13777388       0.22962313 </v>
     <v>       0.09184925       0.27554776      -0.09184925 </v>
    </varray>
   </crystal>
   <varray name="positions" >
    <v>       0.00078329       0.00000000       0.00000000 </v>
    <v>       0.25000000       0.25000000       0.50000000 </v>
    <v>       0.50000000       0.50000000       0.00000000 </v>
    <v>       0.75000000       0.75000000       0.50000000 </v>
    <v>       0.06250000       0.31250000       0.37500000 </v>
    <v>       0.31250000       0.56250000       0.87500000 </v>
    <v>       0.56250000       0.81250000       0.37500000 </v>
    <v>       0.81250000       0.06250000       0.87500000 </v>
   </varray>
  </structure>
  <varray name="forces" >
   <v>       0.09125409      -0.06310778      -0.09125409 </v>
   <v>      -0.00326939       0.00362250       0.00326939 </v>
   <v>      -0.00001792       0.00021177       0.00001792 </v>
   <v>      -0.00322182       0.00358726       0.00322182 </v>
   <v>      -0.04276182       0.01633388       0.04276182 </v>
   <v>      -0.00136210       0.00128908       0.00136210 </v>
   <v>       0.00002381      -0.00056804      -0.00002381 </v>
   <v>      -0.04064485       0.03863134       0.04064485 </v>
  </varray>
  <varray name="stress" >
   <v>      12.53254314       0.61561596       0.40703135 </v>
   <v>       0.61561593      12.53670325      -0.61561593 </v>
   <v>       0.40703135      -0.61561596      12.53254314 </v>
  </varray>
  <energy>
   <i name="e_fr_energy">    -43.39010919 </i>
   <i name="e_wo_entrp">    -43.39010919 </i>
   <i name="e_0_energy">    -43.39010919 </i>
  </energy>
  <time name="totalsc">   13.42   13.45</time>
  <eigenvalues>
   <array>
    <dimension dim="1">band</dimension>
    <dimension dim="2">kpoint</dimension>
    <dimension dim="3">spin</dimension>
    <field>eigene</field>
    <field>occ</field>
    <set>
     <set comment="spin 1">
      <set comment="kpoint 1">
       <r>   -6.1550    1.0000 </r>
       <r>   -5.3692    1.0000 </r>
       <r>   -5.3527    1.0000 </r>
       <r>   -3.8465    1.0000 </r>
       <r>   -1.1683    1.0000 </r>
       <r>    1.8434    1.0000 </r>
       <r>    1.8561    1.0000 </r>
       <r>    4.5585    1.0000 </r>
       <r>    4.5615    1.0000 </r>
       <r>    4.9841    1.0000 </r>
       <r>    4.9898    1.0000 </r>
       <r>    5.0050    1.0000 </r>
       <r>    5.0050    1.0000 </r>
       <r>    5.7451    1.0000 </r>
       <r>    5.7484    1.0000 </r>
       <r>    5.7671    1.0000 </r>
       <r>    7.2654    0.0000 </r>
       <r>    7.7484    0.0000 </r>
       <r>    7.7657    0.0000 </r>
       <r>    8.3083    0.0000 </r>
       <r>    8.3190    0.0000 </r>
       <r>    8.3212    0.0000 </r>
       <r>    9.0449    0.0000 </r>
       <r>    9.0928    0.0000 </r>
      </set>
      <set comment="kpoint 2">
       <r>   -6.0647    1.0000 </r>
       <r>   -5.7961    1.0000 </r>
       <r>   -4.7889    1.0000 </r>
       <r>   -4.1752    1.0000 </r>
       <r>   -0.6691    1.0000 </r>
       <r>    0.4514    1.0000 </r>
       <r>    3.3882    1.0000 </r>
       <r>    4.6077    1.0000 </r>
       <r>    4.6108    1.0000 </r>
       <r>    4.7561    1.0000 </r>
       <r>    4.7587    1.0000 </r>
       <r>    4.9062    1.0000 </r>
       <r>    5.3007    1.0000 </r>
       <r>    5.3037    1.0000 </r>
       <r>    5.6040    1.0000 </r>
       <r>    5.6070    1.0000 </r>
       <r>    7.3223    0.0000 </r>
       <r>    7.4913    0.0000 </r>
       <r>    8.0801    0.0000 </r>
       <r>    8.3438    0.0000 </r>
       <r>    8.5273    0.0000 </r>
       <r>    8.5294    0.0000 </r>
       <r>    8.9573    0.0000 </r>
       <r>    8.9599    0.0000 </r>
      </set>
      <set comment="kpoint 3">
       <r>   -6.0859    1.0000 </r>
       <r>   -5.3328    1.0000 </r>
       <r>   -5.2532    1.0000 </r>
       <r>   -3.7802    1.0000 </r>
       <r>   -1.1305    1.0000 </r>
       <r>    1.7412    1.0000 </r>
       <r>    1.9658    1.0000 </r>
       <r>    4.0218    1.0000 </r>
       <r>    4.2220    1.0000 </r>
       <r>    4.4301    1.0000 </r>
       <r>    4.6252    1.0000 </r>
       <r>    4.7890    1.0000 </r>
       <r>    5.0895    1.0000 </r>
       <r>    5.1523    1.0000 </r>
       <r>    5.5774    1.0000 </r>
       <r>    5.6776    1.0000 </r>
       <r>    7.7245    0.0000 </r>
       <r>    8.1408    0.0000 </r>
       <r>    8.1772    0.0000 </r>
       <r>    8.3483    0.0000 </r>
       <r>    8.4420    0.0000 </r>
       <r>    8.5530    0.0000 </r>
       <r>    8.9615    0.0000 </r>
       <r>    9.0313    0.0000 </r>
      </set>
      <set comment="kpoint 4">
       <r>   -6.0094    1.0000 </r>
       <r>   -5.7006    1.0000 </r>
       <r>   -4.7687    1.0000 </r>
       <r>   -4.0660    1.0000 </r>
       <r>   -0.7020    1.0000 </r>
       <r>    0.5733    1.0000 </r>
       <r>    3.2146    1.0000 </r>
       <r>    3.9639    1.0000 </r>
       <r>    4.4417    1.0000 </r>
       <r>    4.4551    1.0000 </r>
       <r>    4.5560    1.0000 </r>
       <r>    4.5903    1.0000 </r>
       <r>    4.8647    1.0000 </r>
       <r>    5.2671    1.0000 </r>
       <r>    5.3292    1.0000 </r>
       <r>    5.4693    1.0000 </r>
       <r>    7.7741    0.0000 </r>
       <r>    7.9417    0.0000 </r>
       <r>    8.0376    0.0000 </r>
       <r>    8.4653    0.0000 </r>
       <r>    8.8166    0.0000 </r>
       <r>    8.9069    0.0000 </r>
       <r>    8.9716    0.0000 </r>
       <r>    9.0326    0.0000 </r>
      </set>
      <set comment="kpoint 5">
       <r>   -5.9820    1.0000 </r>
       <r>   -5.7545    1.0000 </r>
       <r>   -4.6745    1.0000 </r>
       <r>   -4.1508    1.0000 </r>
       <r>   -0.5667    1.0000 </r>
       <r>    0.3797    1.0000 </r>
       <r>    3.4665    1.0000 </r>
       <r>    4.0277    1.0000 </r>
       <r>    4.1913    1.0000 </r>
       <r>    4.3778    1.0000 </r>
       <r>    4.4962    1.0000 </r>
       <r>    4.8387    1.0000 </r>
       <r>    4.9154    1.0000 </r>
       <r>    5.1141    1.0000 </r>
       <r>    5.1324    1.0000 </r>
       <r>    5.6617    1.0000 </r>
       <r>    7.7836    0.0000 </r>
       <r>    7.9302    0.0000 </r>
       <r>    8.1615    0.0000 </r>
       <r>    8.5016    0.0000 </r>
       <r>    8.5736    0.0000 </r>
       <r>    8.6583    0.0000 </r>
       <r>    8.8606    0.0000 </r>
       <r>    9.0009    0.0000 </r>
      </set>
      <set comment="kpoint 6">
       <r>   -5.8800    1.0000 </r>
       <r>   -5.1663    1.0000 </r>
       <r>   -5.0158    1.0000 </r>
       <r>   -3.5823    1.0000 </r>
       <r>   -1.0381    1.0000 </r>
       <r>    1.5677    1.0000 </r>
       <r>    2.0069    1.0000 </r>
       <r>    3.0324    1.0000 </r>
       <r>    3.1956    1.0000 </r>
       <r>    3.8449    1.0000 </r>
       <r>    4.1081    1.0000 </r>
       <r>    4.1214    1.0000 </r>
       <r>    4.1845    1.0000 </r>
       <r>    5.0487    1.0000 </r>
       <r>    5.2148    1.0000 </r>
       <r>    5.4323    1.0000 </r>
       <r>    7.7320    0.0000 </r>
       <r>    7.8988    0.0000 </r>
       <r>    8.2732    0.0000 </r>
       <r>    8.6317    0.0000 </r>
       <r>    8.6629    0.0000 </r>
       <r>    9.0659    0.0000 </r>
       <r>    9.4759    0.0000 </r>
       <r>    9.6176    0.0000 </r>
      </set>
      <set comment="kpoint 7">
       <r>   -5.8167    1.0000 </r>
       <r>   -5.4716    1.0000 </r>
       <r>   -4.6124    1.0000 </r>
       <r>   -3.8282    1.0000 </r>
       <r>   -0.6788    1.0000 </r>
       <r>    0.6938    1.0000 </r>
       <r>    2.6450    1.0000 </r>
       <r>    2.9055    1.0000 </r>
       <r>    3.6707    1.0000 </r>
       <r>    3.8662    1.0000 </r>
       <r>    4.0291    1.0000 </r>
       <r>    4.0915    1.0000 </r>
       <r>    4.3547    1.0000 </r>
       <r>    4.8334    1.0000 </r>
       <r>    4.8940    1.0000 </r>
       <r>    5.3585    1.0000 </r>
       <r>    7.7263    0.0000 </r>
       <r>    7.8434    0.0000 </r>
       <r>    8.0817    0.0000 </r>
       <r>    8.7567    0.0000 </r>
       <r>    9.0327    0.0000 </r>
       <r>    9.2920    0.0000 </r>
       <r>    9.5089    0.0000 </r>
       <r>    9.6340    0.0000 </r>
      </set>
      <set comment="kpoint 8">
       <r>   -5.7639    1.0000 </r>
       <r>   -5.5754    1.0000 </r>
       <r>   -4.4315    1.0000 </r>
       <r>   -3.9918    1.0000 </r>
       <r>   -0.4284    1.0000 </r>
       <r>    0.3379    1.0000 </r>
       <r>    2.9405    1.0000 </r>
       <r>    3.2941    1.0000 </r>
       <r>    3.3134    1.0000 </r>
       <r>    3.3299    1.0000 </r>
       <r>    4.0096    1.0000 </r>
       <r>    4.4621    1.0000 </r>
       <r>    4.4965    1.0000 </r>
       <r>    4.6809    1.0000 </r>
       <r>    4.9502    1.0000 </r>
       <r>    5.4392    1.0000 </r>
       <r>    7.5005    0.0000 </r>
       <r>    7.8354    0.0000 </r>
       <r>    8.2403    0.0000 </r>
       <r>    8.3590    0.0000 </r>
       <r>    8.8204    0.0000 </r>
       <r>    9.1142    0.0000 </r>
       <r>    9.6972    0.0000 </r>
       <r>    9.7684    0.0000 </r>
      </set>
      <set comment="kpoint 9">
       <r>   -5.5425    1.0000 </r>
       <r>   -4.8651    1.0000 </r>
       <r>   -4.6597    1.0000 </r>
       <r>   -3.2568    1.0000 </r>
       <r>   -0.9776    1.0000 </r>
       <r>    1.0008    1.0000 </r>
       <r>    1.7266    1.0000 </r>
       <r>    2.1289    1.0000 </r>
       <r>    2.5336    1.0000 </r>
       <r>    2.6451    1.0000 </r>
       <r>    3.6229    1.0000 </r>
       <r>    3.7618    1.0000 </r>
       <r>    3.7781    1.0000 </r>
       <r>    4.7985    1.0000 </r>
       <r>    4.8389    1.0000 </r>
       <r>    5.0723    1.0000 </r>
       <r>    7.0565    0.0000 </r>
       <r>    7.5043    0.0000 </r>
       <r>    8.1511    0.0000 </r>
       <r>    8.5407    0.0000 </r>
       <r>    8.8023    0.0000 </r>
       <r>    8.8648    0.0000 </r>
       <r>    9.5526    0.0000 </r>
       <r>    9.8857    0.0000 </r>
      </set>
      <set comment="kpoint 10">
       <r>   -5.4904    1.0000 </r>
       <r>   -5.1187    1.0000 </r>
       <r>   -4.3215    1.0000 </r>
       <r>   -3.4756    1.0000 </r>
       <r>   -0.6781    1.0000 </r>
       <r>    0.6431    1.0000 </r>
       <r>    1.5487    1.0000 </r>
       <r>    1.9519    1.0000 </r>
       <r>    2.9022    1.0000 </r>
       <r>    3.0344    1.0000 </r>
       <r>    3.6282    1.0000 </r>
       <r>    3.7586    1.0000 </r>
       <r>    4.0365    1.0000 </r>
       <r>    4.4271    1.0000 </r>
       <r>    4.4946    1.0000 </r>
       <r>    5.1019    1.0000 </r>
       <r>    7.2926    0.0000 </r>
       <r>    7.6789    0.0000 </r>
       <r>    7.7777    0.0000 </r>
       <r>    8.4213    0.0000 </r>
       <r>    9.1208    0.0000 </r>
       <r>    9.2841    0.0000 </r>
       <r>    9.5360    0.0000 </r>
       <r>    9.6434    0.0000 </r>
      </set>
      <set comment="kpoint 11">
       <r>   -5.4174    1.0000 </r>
       <r>   -5.2615    1.0000 </r>
       <r>   -4.0750    1.0000 </r>
       <r>   -3.6993    1.0000 </r>
       <r>   -0.3700    1.0000 </r>
       <r>    0.1865    1.0000 </r>
       <r>    2.0312    1.0000 </r>
       <r>    2.0561    1.0000 </r>
       <r>    2.5046    1.0000 </r>
       <r>    2.6367    1.0000 </r>
       <r>    3.6278    1.0000 </r>
       <r>    4.0477    1.0000 </r>
       <r>    4.0552    1.0000 </r>
       <r>    4.4025    1.0000 </r>
       <r>    4.8766    1.0000 </r>
       <r>    5.1213    1.0000 </r>
       <r>    7.0355    0.0000 </r>
       <r>    7.3706    0.0000 </r>
       <r>    7.8624    0.0000 </r>
       <r>    8.1656    0.0000 </r>
       <r>    9.1480    0.0000 </r>
       <r>    9.2278    0.0000 </r>
       <r>    9.3314    0.0000 </r>
       <r>   10.2060    0.0000 </r>
      </set>
      <set comment="kpoint 12">
       <r>   -5.0853    1.0000 </r>
       <r>   -4.4339    1.0000 </r>
       <r>   -4.2172    1.0000 </r>
       <r>   -2.8147    1.0000 </r>
       <r>   -1.1408    1.0000 </r>
       <r>    0.0764    1.0000 </r>
       <r>    1.0305    1.0000 </r>
       <r>    1.2919    1.0000 </r>
       <r>    1.6218    1.0000 </r>
       <r>    2.6641    1.0000 </r>
       <r>    3.4284    1.0000 </r>
       <r>    3.4367    1.0000 </r>
       <r>    3.4588    1.0000 </r>
       <r>    4.5189    1.0000 </r>
       <r>    4.5434    1.0000 </r>
       <r>    4.6416    1.0000 </r>
       <r>    6.5718    0.0000 </r>
       <r>    7.1085    0.0000 </r>
       <r>    7.9648    0.0000 </r>
       <r>    8.0581    0.0000 </r>
       <r>    8.2750    0.0000 </r>
       <r>    9.0135    0.0000 </r>
       <r>    9.8104    0.0000 </r>
       <r>    9.9763    0.0000 </r>
      </set>
      <set comment="kpoint 13">
       <r>   -5.0389    1.0000 </r>
       <r>   -4.6650    1.0000 </r>
       <r>   -3.9001    1.0000 </r>
       <r>   -3.0515    1.0000 </r>
       <r>   -0.8728    1.0000 </r>
       <r>    0.1985    1.0000 </r>
       <r>    0.4121    1.0000 </r>
       <r>    1.4239    1.0000 </r>
       <r>    1.7081    1.0000 </r>
       <r>    2.8512    1.0000 </r>
       <r>    3.2987    1.0000 </r>
       <r>    3.7388    1.0000 </r>
       <r>    3.8646    1.0000 </r>
       <r>    3.9718    1.0000 </r>
       <r>    4.1029    1.0000 </r>
       <r>    4.8370    1.0000 </r>
       <r>    6.7917    0.0000 </r>
       <r>    7.4230    0.0000 </r>
       <r>    7.7226    0.0000 </r>
       <r>    7.9499    0.0000 </r>
       <r>    8.0534    0.0000 </r>
       <r>    9.3320    0.0000 </r>
       <r>    9.4094    0.0000 </r>
       <r>    9.7240    0.0000 </r>
      </set>
      <set comment="kpoint 14">
       <r>   -4.9590    1.0000 </r>
       <r>   -4.8193    1.0000 </r>
       <r>   -3.6480    1.0000 </r>
       <r>   -3.2771    1.0000 </r>
       <r>   -0.6171    1.0000 </r>
       <r>   -0.3115    1.0000 </r>
       <r>    0.8162    1.0000 </r>
       <r>    1.6654    1.0000 </r>
       <r>    1.7492    1.0000 </r>
       <r>    2.1493    1.0000 </r>
       <r>    3.3043    1.0000 </r>
       <r>    3.6078    1.0000 </r>
       <r>    3.7177    1.0000 </r>
       <r>    4.1234    1.0000 </r>
       <r>    4.8013    1.0000 </r>
       <r>    4.8330    1.0000 </r>
       <r>    6.9364    0.0000 </r>
       <r>    6.9494    0.0000 </r>
       <r>    7.5655    0.0000 </r>
       <r>    7.8630    0.0000 </r>
       <r>    8.6495    0.0000 </r>
       <r>    8.8811    0.0000 </r>
       <r>    9.2685    0.0000 </r>
       <r>    9.2953    0.0000 </r>
      </set>
      <set comment="kpoint 15">
       <r>   -4.5367    1.0000 </r>
       <r>   -3.8829    1.0000 </r>
       <r>   -3.7847    1.0000 </r>
       <r>   -2.3274    1.0000 </r>
       <r>   -1.5888    1.0000 </r>
       <r>   -0.7485    1.0000 </r>
       <r>    0.1726    1.0000 </r>
       <r>    0.1917    1.0000 </r>
       <r>    1.6654    1.0000 </r>
       <r>    2.9179    1.0000 </r>
       <r>    3.1398    1.0000 </r>
       <r>    3.2093    1.0000 </r>
       <r>    3.2311    1.0000 </r>
       <r>    4.1785    1.0000 </r>
       <r>    4.3068    1.0000 </r>
       <r>    4.3355    1.0000 </r>
       <r>    6.4751    0.0000 </r>
       <r>    6.8302    0.0000 </r>
       <r>    7.4628    0.0000 </r>
       <r>    7.9870    0.0000 </r>
       <r>    8.0642    0.0000 </r>
       <r>    9.0766    0.0000 </r>
       <r>    9.1292    0.0000 </r>
       <r>    9.6458    0.0000 </r>
      </set>
      <set comment="kpoint 16">
       <r>   -4.4818    1.0000 </r>
       <r>   -4.1740    1.0000 </r>
       <r>   -3.3560    1.0000 </r>
       <r>   -2.7441    1.0000 </r>
       <r>   -1.1841    1.0000 </r>
       <r>   -0.5574    1.0000 </r>
       <r>   -0.5322    1.0000 </r>
       <r>    0.6051    1.0000 </r>
       <r>    1.4579    1.0000 </r>
       <r>    2.9552    1.0000 </r>
       <r>    3.0693    1.0000 </r>
       <r>    3.3976    1.0000 </r>
       <r>    3.5160    1.0000 </r>
       <r>    3.8838    1.0000 </r>
       <r>    4.0568    1.0000 </r>
       <r>    4.6345    1.0000 </r>
       <r>    6.4361    0.0000 </r>
       <r>    7.1114    0.0000 </r>
       <r>    7.1695    0.0000 </r>
       <r>    7.6694    0.0000 </r>
       <r>    7.7423    0.0000 </r>
       <r>    9.2045    0.0000 </r>
       <r>    9.2650    0.0000 </r>
       <r>   10.0742    0.0000 </r>
      </set>
      <set comment="kpoint 17">
       <r>   -4.4309    1.0000 </r>
       <r>   -4.2622    1.0000 </r>
       <r>   -3.2935    1.0000 </r>
       <r>   -2.7323    1.0000 </r>
       <r>   -1.2229    1.0000 </r>
       <r>   -0.8888    1.0000 </r>
       <r>   -0.2380    1.0000 </r>
       <r>    0.6710    1.0000 </r>
       <r>    1.9270    1.0000 </r>
       <r>    2.2941    1.0000 </r>
       <r>    3.0238    1.0000 </r>
       <r>    3.0745    1.0000 </r>
       <r>    3.4940    1.0000 </r>
       <r>    3.9082    1.0000 </r>
       <r>    4.6263    1.0000 </r>
       <r>    4.6840    1.0000 </r>
       <r>    6.6464    0.0000 </r>
       <r>    7.0352    0.0000 </r>
       <r>    7.4038    0.0000 </r>
       <r>    7.6396    0.0000 </r>
       <r>    7.7412    0.0000 </r>
       <r>    8.4988    0.0000 </r>
       <r>    9.1580    0.0000 </r>
       <r>    9.2449    0.0000 </r>
      </set>
      <set comment="kpoint 18">
       <r>   -3.9758    1.0000 </r>
       <r>   -3.6337    1.0000 </r>
       <r>   -3.2314    1.0000 </r>
       <r>   -2.5433    1.0000 </r>
       <r>   -1.4088    1.0000 </r>
       <r>   -1.0829    1.0000 </r>
       <r>   -0.6841    1.0000 </r>
       <r>   -0.6648    1.0000 </r>
       <r>    2.0790    1.0000 </r>
       <r>    2.6349    1.0000 </r>
       <r>    3.0949    1.0000 </r>
       <r>    3.1117    1.0000 </r>
       <r>    3.2842    1.0000 </r>
       <r>    3.7157    1.0000 </r>
       <r>    4.2007    1.0000 </r>
       <r>    4.2227    1.0000 </r>
       <r>    6.6188    0.0000 </r>
       <r>    6.6905    0.0000 </r>
       <r>    7.4683    0.0000 </r>
       <r>    7.9379    0.0000 </r>
       <r>    7.9559    0.0000 </r>
       <r>    8.1203    0.0000 </r>
       <r>    9.1737    0.0000 </r>
       <r>    9.3665    0.0000 </r>
      </set>
      <set comment="kpoint 19">
       <r>   -3.8699    1.0000 </r>
       <r>   -3.8352    1.0000 </r>
       <r>   -3.0000    1.0000 </r>
       <r>   -2.7037    1.0000 </r>
       <r>   -1.3271    1.0000 </r>
       <r>   -1.1285    1.0000 </r>
       <r>   -0.9605    1.0000 </r>
       <r>   -0.3292    1.0000 </r>
       <r>    1.8454    1.0000 </r>
       <r>    2.8325    1.0000 </r>
       <r>    2.9483    1.0000 </r>
       <r>    2.9530    1.0000 </r>
       <r>    3.3942    1.0000 </r>
       <r>    3.7785    1.0000 </r>
       <r>    4.2849    1.0000 </r>
       <r>    4.5252    1.0000 </r>
       <r>    6.3727    0.0000 </r>
       <r>    6.6944    0.0000 </r>
       <r>    7.0479    0.0000 </r>
       <r>    7.5144    0.0000 </r>
       <r>    7.5691    0.0000 </r>
       <r>    9.0719    0.0000 </r>
       <r>    9.2067    0.0000 </r>
       <r>    9.7603    0.0000 </r>
      </set>
      <set comment="kpoint 20">
       <r>   -3.9574    1.0000 </r>
       <r>   -3.6226    1.0000 </r>
       <r>   -3.3579    1.0000 </r>
       <r>   -2.0852    1.0000 </r>
       <r>   -1.9604    1.0000 </r>
       <r>   -0.9880    1.0000 </r>
       <r>   -0.9338    1.0000 </r>
       <r>   -0.2411    1.0000 </r>
       <r>    2.3242    1.0000 </r>
       <r>    2.4024    1.0000 </r>
       <r>    2.6630    1.0000 </r>
       <r>    2.9551    1.0000 </r>
       <r>    3.3855    1.0000 </r>
       <r>    3.7885    1.0000 </r>
       <r>    4.5065    1.0000 </r>
       <r>    4.5217    1.0000 </r>
       <r>    6.5143    0.0000 </r>
       <r>    6.8907    0.0000 </r>
       <r>    7.0402    0.0000 </r>
       <r>    7.3926    0.0000 </r>
       <r>    7.5418    0.0000 </r>
       <r>    8.9292    0.0000 </r>
       <r>    9.0598    0.0000 </r>
       <r>    9.2030    0.0000 </r>
      </set>
      <set comment="kpoint 21">
       <r>   -6.0843    1.0000 </r>
       <r>   -5.3711    1.0000 </r>
       <r>   -5.2124    1.0000 </r>
       <r>   -3.7873    1.0000 </r>
       <r>   -1.1202    1.0000 </r>
       <r>    1.6302    1.0000 </r>
       <r>    2.0768    1.0000 </r>
       <r>    3.9963    1.0000 </r>
       <r>    4.2845    1.0000 </r>
       <r>    4.4598    1.0000 </r>
       <r>    4.5748    1.0000 </r>
       <r>    4.7061    1.0000 </r>
       <r>    5.1549    1.0000 </r>
       <r>    5.2303    1.0000 </r>
       <r>    5.5212    1.0000 </r>
       <r>    5.6298    1.0000 </r>
       <r>    7.7263    0.0000 </r>
       <r>    8.0989    0.0000 </r>
       <r>    8.2385    0.0000 </r>
       <r>    8.2483    0.0000 </r>
       <r>    8.5415    0.0000 </r>
       <r>    8.6236    0.0000 </r>
       <r>    8.9973    0.0000 </r>
       <r>    9.0559    0.0000 </r>
      </set>
      <set comment="kpoint 22">
       <r>   -5.9663    1.0000 </r>
       <r>   -5.7807    1.0000 </r>
       <r>   -4.6255    1.0000 </r>
       <r>   -4.1967    1.0000 </r>
       <r>   -0.4910    1.0000 </r>
       <r>    0.2813    1.0000 </r>
       <r>    3.5472    1.0000 </r>
       <r>    3.9658    1.0000 </r>
       <r>    4.3849    1.0000 </r>
       <r>    4.4184    1.0000 </r>
       <r>    4.5768    1.0000 </r>
       <r>    4.6425    1.0000 </r>
       <r>    4.6562    1.0000 </r>
       <r>    5.1862    1.0000 </r>
       <r>    5.2995    1.0000 </r>
       <r>    5.5332    1.0000 </r>
       <r>    7.8006    0.0000 </r>
       <r>    7.8984    0.0000 </r>
       <r>    8.0398    0.0000 </r>
       <r>    8.5276    0.0000 </r>
       <r>    8.7249    0.0000 </r>
       <r>    8.9212    0.0000 </r>
       <r>    9.0222    0.0000 </r>
       <r>    9.0679    0.0000 </r>
      </set>
      <set comment="kpoint 23">
       <r>   -6.0219    1.0000 </r>
       <r>   -5.6714    1.0000 </r>
       <r>   -4.8166    1.0000 </r>
       <r>   -4.0246    1.0000 </r>
       <r>   -0.7671    1.0000 </r>
       <r>    0.6760    1.0000 </r>
       <r>    3.1185    1.0000 </r>
       <r>    4.0586    1.0000 </r>
       <r>    4.1419    1.0000 </r>
       <r>    4.3817    1.0000 </r>
       <r>    4.6870    1.0000 </r>
       <r>    4.8404    1.0000 </r>
       <r>    4.9110    1.0000 </r>
       <r>    5.0531    1.0000 </r>
       <r>    5.3015    1.0000 </r>
       <r>    5.6720    1.0000 </r>
       <r>    7.7606    0.0000 </r>
       <r>    7.9795    0.0000 </r>
       <r>    8.1906    0.0000 </r>
       <r>    8.4673    0.0000 </r>
       <r>    8.4725    0.0000 </r>
       <r>    8.6493    0.0000 </r>
       <r>    8.8611    0.0000 </r>
       <r>    9.0005    0.0000 </r>
      </set>
      <set comment="kpoint 24">
       <r>   -5.9499    1.0000 </r>
       <r>   -5.1675    1.0000 </r>
       <r>   -5.1509    1.0000 </r>
       <r>   -3.6415    1.0000 </r>
       <r>   -1.0738    1.0000 </r>
       <r>    1.8154    1.0000 </r>
       <r>    1.8285    1.0000 </r>
       <r>    3.3111    1.0000 </r>
       <r>    3.7157    1.0000 </r>
       <r>    3.7249    1.0000 </r>
       <r>    4.1789    1.0000 </r>
       <r>    4.3301    1.0000 </r>
       <r>    4.8200    1.0000 </r>
       <r>    4.8353    1.0000 </r>
       <r>    5.0071    1.0000 </r>
       <r>    5.6597    1.0000 </r>
       <r>    8.2328    0.0000 </r>
       <r>    8.3722    0.0000 </r>
       <r>    8.3798    0.0000 </r>
       <r>    8.5247    0.0000 </r>
       <r>    8.6460    0.0000 </r>
       <r>    8.6664    0.0000 </r>
       <r>    8.8841    0.0000 </r>
       <r>    9.1755    0.0000 </r>
      </set>
      <set comment="kpoint 25">
       <r>   -5.8600    1.0000 </r>
       <r>   -5.5926    1.0000 </r>
       <r>   -4.5886    1.0000 </r>
       <r>   -3.9738    1.0000 </r>
       <r>   -0.5804    1.0000 </r>
       <r>    0.5077    1.0000 </r>
       <r>    3.1186    1.0000 </r>
       <r>    3.3452    1.0000 </r>
       <r>    3.4676    1.0000 </r>
       <r>    3.9842    1.0000 </r>
       <r>    4.1975    1.0000 </r>
       <r>    4.2677    1.0000 </r>
       <r>    4.5072    1.0000 </r>
       <r>    5.0194    1.0000 </r>
       <r>    5.1090    1.0000 </r>
       <r>    5.2066    1.0000 </r>
       <r>    8.0726    0.0000 </r>
       <r>    8.1373    0.0000 </r>
       <r>    8.2670    0.0000 </r>
       <r>    8.3553    0.0000 </r>
       <r>    8.9318    0.0000 </r>
       <r>    8.9528    0.0000 </r>
       <r>    9.1021    0.0000 </r>
       <r>    9.2021    0.0000 </r>
      </set>
      <set comment="kpoint 26">
       <r>   -5.6792    1.0000 </r>
       <r>   -4.9295    1.0000 </r>
       <r>   -4.8592    1.0000 </r>
       <r>   -3.3742    1.0000 </r>
       <r>   -0.9983    1.0000 </r>
       <r>    1.4337    1.0000 </r>
       <r>    1.7008    1.0000 </r>
       <r>    2.4433    1.0000 </r>
       <r>    2.9369    1.0000 </r>
       <r>    3.1787    1.0000 </r>
       <r>    3.3630    1.0000 </r>
       <r>    3.7656    1.0000 </r>
       <r>    4.1872    1.0000 </r>
       <r>    4.4464    1.0000 </r>
       <r>    4.6682    1.0000 </r>
       <r>    5.4552    1.0000 </r>
       <r>    7.7321    0.0000 </r>
       <r>    8.1836    0.0000 </r>
       <r>    8.5368    0.0000 </r>
       <r>    8.7822    0.0000 </r>
       <r>    8.8242    0.0000 </r>
       <r>    9.1232    0.0000 </r>
       <r>    9.2252    0.0000 </r>
       <r>    9.4417    0.0000 </r>
      </set>
      <set comment="kpoint 27">
       <r>   -5.6022    1.0000 </r>
       <r>   -5.3009    1.0000 </r>
       <r>   -4.3678    1.0000 </r>
       <r>   -3.6740    1.0000 </r>
       <r>   -0.5750    1.0000 </r>
       <r>    0.5622    1.0000 </r>
       <r>    2.1759    1.0000 </r>
       <r>    2.3706    1.0000 </r>
       <r>    2.9331    1.0000 </r>
       <r>    3.2177    1.0000 </r>
       <r>    3.8936    1.0000 </r>
       <r>    3.9036    1.0000 </r>
       <r>    3.9705    1.0000 </r>
       <r>    4.3161    1.0000 </r>
       <r>    4.9061    1.0000 </r>
       <r>    4.9221    1.0000 </r>
       <r>    7.8637    0.0000 </r>
       <r>    7.9705    0.0000 </r>
       <r>    8.3172    0.0000 </r>
       <r>    8.4428    0.0000 </r>
       <r>    9.1653    0.0000 </r>
       <r>    9.3296    0.0000 </r>
       <r>    9.4493    0.0000 </r>
       <r>    9.9673    0.0000 </r>
      </set>
      <set comment="kpoint 28">
       <r>   -5.5779    1.0000 </r>
       <r>   -5.3486    1.0000 </r>
       <r>   -4.2856    1.0000 </r>
       <r>   -3.7484    1.0000 </r>
       <r>   -0.4691    1.0000 </r>
       <r>    0.4035    1.0000 </r>
       <r>    2.4852    1.0000 </r>
       <r>    2.6386    1.0000 </r>
       <r>    2.6560    1.0000 </r>
       <r>    2.7258    1.0000 </r>
       <r>    3.7373    1.0000 </r>
       <r>    4.0521    1.0000 </r>
       <r>    4.2985    1.0000 </r>
       <r>    4.3817    1.0000 </r>
       <r>    4.7650    1.0000 </r>
       <r>    5.0529    1.0000 </r>
       <r>    7.4960    0.0000 </r>
       <r>    8.0458    0.0000 </r>
       <r>    8.2168    0.0000 </r>
       <r>    8.7856    0.0000 </r>
       <r>    8.8536    0.0000 </r>
       <r>    9.2210    0.0000 </r>
       <r>    9.6150    0.0000 </r>
       <r>    9.6368    0.0000 </r>
      </set>
      <set comment="kpoint 29">
       <r>   -5.2815    1.0000 </r>
       <r>   -4.5662    1.0000 </r>
       <r>   -4.4533    1.0000 </r>
       <r>   -2.9857    1.0000 </r>
       <r>   -1.0399    1.0000 </r>
       <r>    0.5909    1.0000 </r>
       <r>    1.2027    1.0000 </r>
       <r>    1.7711    1.0000 </r>
       <r>    1.9460    1.0000 </r>
       <r>    2.7438    1.0000 </r>
       <r>    3.2551    1.0000 </r>
       <r>    3.3672    1.0000 </r>
       <r>    3.6237    1.0000 </r>
       <r>    4.0060    1.0000 </r>
       <r>    4.4128    1.0000 </r>
       <r>    5.1160    1.0000 </r>
       <r>    7.0883    0.0000 </r>
       <r>    7.7782    0.0000 </r>
       <r>    8.4242    0.0000 </r>
       <r>    8.5083    0.0000 </r>
       <r>    8.8052    0.0000 </r>
       <r>    9.0096    0.0000 </r>
       <r>    9.0962    0.0000 </r>
       <r>    9.7147    0.0000 </r>
      </set>
      <set comment="kpoint 30">
       <r>   -5.2143    1.0000 </r>
       <r>   -4.8934    1.0000 </r>
       <r>   -4.0152    1.0000 </r>
       <r>   -3.2756    1.0000 </r>
       <r>   -0.6833    1.0000 </r>
       <r>    0.3264    1.0000 </r>
       <r>    1.0214    1.0000 </r>
       <r>    1.6469    1.0000 </r>
       <r>    2.2198    1.0000 </r>
       <r>    2.6780    1.0000 </r>
       <r>    3.3629    1.0000 </r>
       <r>    3.6313    1.0000 </r>
       <r>    3.6665    1.0000 </r>
       <r>    3.9029    1.0000 </r>
       <r>    4.5742    1.0000 </r>
       <r>    4.6338    1.0000 </r>
       <r>    7.4436    0.0000 </r>
       <r>    7.9030    0.0000 </r>
       <r>    8.0923    0.0000 </r>
       <r>    8.2328    0.0000 </r>
       <r>    8.6697    0.0000 </r>
       <r>    9.1213    0.0000 </r>
       <r>    9.6211    0.0000 </r>
       <r>   10.0443    0.0000 </r>
      </set>
      <set comment="kpoint 31">
       <r>   -5.1734    1.0000 </r>
       <r>   -4.9727    1.0000 </r>
       <r>   -3.8842    1.0000 </r>
       <r>   -3.3927    1.0000 </r>
       <r>   -0.5403    1.0000 </r>
       <r>    0.0346    1.0000 </r>
       <r>    1.4729    1.0000 </r>
       <r>    1.9115    1.0000 </r>
       <r>    1.9229    1.0000 </r>
       <r>    2.1456    1.0000 </r>
       <r>    3.2658    1.0000 </r>
       <r>    3.6713    1.0000 </r>
       <r>    3.9170    1.0000 </r>
       <r>    4.0133    1.0000 </r>
       <r>    4.4501    1.0000 </r>
       <r>    4.9312    1.0000 </r>
       <r>    7.1681    0.0000 </r>
       <r>    7.5990    0.0000 </r>
       <r>    8.0373    0.0000 </r>
       <r>    8.5150    0.0000 </r>
       <r>    8.9957    0.0000 </r>
       <r>    9.0456    0.0000 </r>
       <r>    9.6483    0.0000 </r>
       <r>    9.7177    0.0000 </r>
      </set>
      <set comment="kpoint 32">
       <r>   -4.7740    1.0000 </r>
       <r>   -4.0782    1.0000 </r>
       <r>   -3.9920    1.0000 </r>
       <r>   -2.5053    1.0000 </r>
       <r>   -1.3721    1.0000 </r>
       <r>   -0.3370    1.0000 </r>
       <r>    0.4577    1.0000 </r>
       <r>    0.7851    1.0000 </r>
       <r>    1.5717    1.0000 </r>
       <r>    2.8658    1.0000 </r>
       <r>    3.0517    1.0000 </r>
       <r>    3.0679    1.0000 </r>
       <r>    3.3330    1.0000 </r>
       <r>    3.6606    1.0000 </r>
       <r>    4.2008    1.0000 </r>
       <r>    4.7217    1.0000 </r>
       <r>    6.7092    0.0000 </r>
       <r>    7.4497    0.0000 </r>
       <r>    7.8531    0.0000 </r>
       <r>    8.3437    0.0000 </r>
       <r>    8.5566    0.0000 </r>
       <r>    8.9880    0.0000 </r>
       <r>    9.0784    0.0000 </r>
       <r>    9.9355    0.0000 </r>
      </set>
      <set comment="kpoint 33">
       <r>   -4.7086    1.0000 </r>
       <r>   -4.4060    1.0000 </r>
       <r>   -3.5370    1.0000 </r>
       <r>   -2.8680    1.0000 </r>
       <r>   -1.0170    1.0000 </r>
       <r>   -0.2670    1.0000 </r>
       <r>   -0.0495    1.0000 </r>
       <r>    1.1461    1.0000 </r>
       <r>    1.4362    1.0000 </r>
       <r>    2.7492    1.0000 </r>
       <r>    3.0021    1.0000 </r>
       <r>    3.1883    1.0000 </r>
       <r>    3.3620    1.0000 </r>
       <r>    3.9866    1.0000 </r>
       <r>    4.1491    1.0000 </r>
       <r>    4.4169    1.0000 </r>
       <r>    6.9692    0.0000 </r>
       <r>    7.6799    0.0000 </r>
       <r>    7.7900    0.0000 </r>
       <r>    7.9871    0.0000 </r>
       <r>    8.0060    0.0000 </r>
       <r>    9.0461    0.0000 </r>
       <r>    9.7565    0.0000 </r>
       <r>    9.7980    0.0000 </r>
      </set>
      <set comment="kpoint 34">
       <r>   -4.6712    1.0000 </r>
       <r>   -4.4741    1.0000 </r>
       <r>   -3.4588    1.0000 </r>
       <r>   -2.9124    1.0000 </r>
       <r>   -0.9726    1.0000 </r>
       <r>   -0.6051    1.0000 </r>
       <r>    0.3318    1.0000 </r>
       <r>    1.0367    1.0000 </r>
       <r>    1.9023    1.0000 </r>
       <r>    2.1099    1.0000 </r>
       <r>    2.9185    1.0000 </r>
       <r>    3.1165    1.0000 </r>
       <r>    3.5990    1.0000 </r>
       <r>    3.7753    1.0000 </r>
       <r>    4.1847    1.0000 </r>
       <r>    4.7956    1.0000 </r>
       <r>    7.2203    0.0000 </r>
       <r>    7.2512    0.0000 </r>
       <r>    7.8506    0.0000 </r>
       <r>    8.2474    0.0000 </r>
       <r>    8.4763    0.0000 </r>
       <r>    8.5410    0.0000 </r>
       <r>    9.1519    0.0000 </r>
       <r>    9.4752    0.0000 </r>
      </set>
      <set comment="kpoint 35">
       <r>   -4.2001    1.0000 </r>
       <r>   -3.6397    1.0000 </r>
       <r>   -3.4774    1.0000 </r>
       <r>   -2.2959    1.0000 </r>
       <r>   -1.6030    1.0000 </r>
       <r>   -0.9841    1.0000 </r>
       <r>   -0.3544    1.0000 </r>
       <r>   -0.2156    1.0000 </r>
       <r>    1.8284    1.0000 </r>
       <r>    2.8036    1.0000 </r>
       <r>    2.8801    1.0000 </r>
       <r>    3.0210    1.0000 </r>
       <r>    3.0903    1.0000 </r>
       <r>    3.3851    1.0000 </r>
       <r>    4.1122    1.0000 </r>
       <r>    4.3493    1.0000 </r>
       <r>    6.7912    0.0000 </r>
       <r>    7.2474    0.0000 </r>
       <r>    7.5010    0.0000 </r>
       <r>    8.3007    0.0000 </r>
       <r>    8.3627    0.0000 </r>
       <r>    8.8166    0.0000 </r>
       <r>    8.8957    0.0000 </r>
       <r>    9.0084    0.0000 </r>
      </set>
      <set comment="kpoint 36">
       <r>   -4.1136    1.0000 </r>
       <r>   -3.9438    1.0000 </r>
       <r>   -2.9447    1.0000 </r>
       <r>   -2.7993    1.0000 </r>
       <r>   -1.1388    1.0000 </r>
       <r>   -1.0179    1.0000 </r>
       <r>   -0.8689    1.0000 </r>
       <r>    0.1461    1.0000 </r>
       <r>    1.6592    1.0000 </r>
       <r>    2.6932    1.0000 </r>
       <r>    2.7800    1.0000 </r>
       <r>    2.9954    1.0000 </r>
       <r>    3.2069    1.0000 </r>
       <r>    3.7756    1.0000 </r>
       <r>    4.0314    1.0000 </r>
       <r>    4.3694    1.0000 </r>
       <r>    6.5878    0.0000 </r>
       <r>    7.1467    0.0000 </r>
       <r>    7.6031    0.0000 </r>
       <r>    7.8118    0.0000 </r>
       <r>    7.9596    0.0000 </r>
       <r>    9.0089    0.0000 </r>
       <r>    9.5202    0.0000 </r>
       <r>   10.0074    0.0000 </r>
      </set>
      <set comment="kpoint 37">
       <r>   -4.1387    1.0000 </r>
       <r>   -3.8720    1.0000 </r>
       <r>   -3.2514    1.0000 </r>
       <r>   -2.3174    1.0000 </r>
       <r>   -1.6553    1.0000 </r>
       <r>   -1.0018    1.0000 </r>
       <r>   -0.6019    1.0000 </r>
       <r>    0.1402    1.0000 </r>
       <r>    2.1620    1.0000 </r>
       <r>    2.4313    1.0000 </r>
       <r>    2.6099    1.0000 </r>
       <r>    2.7099    1.0000 </r>
       <r>    3.2691    1.0000 </r>
       <r>    3.6513    1.0000 </r>
       <r>    4.0060    1.0000 </r>
       <r>    4.6272    1.0000 </r>
       <r>    7.0472    0.0000 </r>
       <r>    7.3909    0.0000 </r>
       <r>    7.4439    0.0000 </r>
       <r>    7.7664    0.0000 </r>
       <r>    8.0822    0.0000 </r>
       <r>    8.5551    0.0000 </r>
       <r>    9.1953    0.0000 </r>
       <r>    9.2802    0.0000 </r>
      </set>
      <set comment="kpoint 38">
       <r>   -3.7186    1.0000 </r>
       <r>   -3.6895    1.0000 </r>
       <r>   -2.9044    1.0000 </r>
       <r>   -2.7960    1.0000 </r>
       <r>   -1.1332    1.0000 </r>
       <r>   -1.0008    1.0000 </r>
       <r>   -0.9700    1.0000 </r>
       <r>   -0.9110    1.0000 </r>
       <r>    2.3152    1.0000 </r>
       <r>    2.4299    1.0000 </r>
       <r>    2.7872    1.0000 </r>
       <r>    2.8476    1.0000 </r>
       <r>    3.1298    1.0000 </r>
       <r>    3.3227    1.0000 </r>
       <r>    4.0888    1.0000 </r>
       <r>    4.2025    1.0000 </r>
       <r>    7.0755    0.0000 </r>
       <r>    7.1482    0.0000 </r>
       <r>    7.6414    0.0000 </r>
       <r>    7.9522    0.0000 </r>
       <r>    8.2442    0.0000 </r>
       <r>    8.3084    0.0000 </r>
       <r>    8.9012    0.0000 </r>
       <r>    8.9559    0.0000 </r>
      </set>
      <set comment="kpoint 39">
       <r>   -3.7840    1.0000 </r>
       <r>   -3.5105    1.0000 </r>
       <r>   -3.2943    1.0000 </r>
       <r>   -2.2580    1.0000 </r>
       <r>   -1.7726    1.0000 </r>
       <r>   -1.1400    1.0000 </r>
       <r>   -0.6576    1.0000 </r>
       <r>   -0.6250    1.0000 </r>
       <r>    2.0925    1.0000 </r>
       <r>    2.3740    1.0000 </r>
       <r>    2.6255    1.0000 </r>
       <r>    2.9119    1.0000 </r>
       <r>    3.2006    1.0000 </r>
       <r>    3.5649    1.0000 </r>
       <r>    4.0355    1.0000 </r>
       <r>    4.4717    1.0000 </r>
       <r>    6.6176    0.0000 </r>
       <r>    6.9753    0.0000 </r>
       <r>    7.5361    0.0000 </r>
       <r>    7.7050    0.0000 </r>
       <r>    7.9176    0.0000 </r>
       <r>    9.0583    0.0000 </r>
       <r>    9.3204    0.0000 </r>
       <r>    9.5526    0.0000 </r>
      </set>
      <set comment="kpoint 40">
       <r>   -3.7757    1.0000 </r>
       <r>   -3.5613    1.0000 </r>
       <r>   -3.2157    1.0000 </r>
       <r>   -2.3910    1.0000 </r>
       <r>   -1.6238    1.0000 </r>
       <r>   -1.1166    1.0000 </r>
       <r>   -0.7073    1.0000 </r>
       <r>   -0.6706    1.0000 </r>
       <r>    2.0891    1.0000 </r>
       <r>    2.5218    1.0000 </r>
       <r>    2.6429    1.0000 </r>
       <r>    2.8335    1.0000 </r>
       <r>    3.1047    1.0000 </r>
       <r>    3.6865    1.0000 </r>
       <r>    3.9107    1.0000 </r>
       <r>    4.4471    1.0000 </r>
       <r>    6.7408    0.0000 </r>
       <r>    7.0162    0.0000 </r>
       <r>    7.4344    0.0000 </r>
       <r>    7.7933    0.0000 </r>
       <r>    8.0364    0.0000 </r>
       <r>    9.0562    0.0000 </r>
       <r>    9.1569    0.0000 </r>
       <r>    9.3947    0.0000 </r>
      </set>
      <set comment="kpoint 41">
       <r>   -4.1986    1.0000 </r>
       <r>   -3.5838    1.0000 </r>
       <r>   -3.5541    1.0000 </r>
       <r>   -2.1822    1.0000 </r>
       <r>   -1.7334    1.0000 </r>
       <r>   -0.9921    1.0000 </r>
       <r>   -0.3115    1.0000 </r>
       <r>   -0.2138    1.0000 </r>
       <r>    1.9448    1.0000 </r>
       <r>    2.7847    1.0000 </r>
       <r>    2.8257    1.0000 </r>
       <r>    2.8601    1.0000 </r>
       <r>    3.0292    1.0000 </r>
       <r>    3.5393    1.0000 </r>
       <r>    4.0129    1.0000 </r>
       <r>    4.4630    1.0000 </r>
       <r>    6.9304    0.0000 </r>
       <r>    7.1887    0.0000 </r>
       <r>    7.6688    0.0000 </r>
       <r>    8.1982    0.0000 </r>
       <r>    8.3896    0.0000 </r>
       <r>    8.4622    0.0000 </r>
       <r>    8.9872    0.0000 </r>
       <r>    9.0086    0.0000 </r>
      </set>
      <set comment="kpoint 42">
       <r>   -4.1049    1.0000 </r>
       <r>   -3.9412    1.0000 </r>
       <r>   -3.1526    1.0000 </r>
       <r>   -2.4638    1.0000 </r>
       <r>   -1.5177    1.0000 </r>
       <r>   -1.0111    1.0000 </r>
       <r>   -0.6766    1.0000 </r>
       <r>    0.1917    1.0000 </r>
       <r>    1.9945    1.0000 </r>
       <r>    2.5778    1.0000 </r>
       <r>    2.5939    1.0000 </r>
       <r>    2.7015    1.0000 </r>
       <r>    3.3731    1.0000 </r>
       <r>    3.5415    1.0000 </r>
       <r>    4.1060    1.0000 </r>
       <r>    4.5902    1.0000 </r>
       <r>    6.9919    0.0000 </r>
       <r>    7.2332    0.0000 </r>
       <r>    7.5215    0.0000 </r>
       <r>    7.7081    0.0000 </r>
       <r>    7.9665    0.0000 </r>
       <r>    8.9008    0.0000 </r>
       <r>    9.0954    0.0000 </r>
       <r>    9.3376    0.0000 </r>
      </set>
      <set comment="kpoint 43">
       <r>   -4.1470    1.0000 </r>
       <r>   -3.8824    1.0000 </r>
       <r>   -3.0781    1.0000 </r>
       <r>   -2.6874    1.0000 </r>
       <r>   -1.2176    1.0000 </r>
       <r>   -0.9097    1.0000 </r>
       <r>   -0.8623    1.0000 </r>
       <r>    0.0793    1.0000 </r>
       <r>    1.6399    1.0000 </r>
       <r>    2.7158    1.0000 </r>
       <r>    2.8952    1.0000 </r>
       <r>    3.0496    1.0000 </r>
       <r>    3.1188    1.0000 </r>
       <r>    3.8455    1.0000 </r>
       <r>    3.9112    1.0000 </r>
       <r>    4.3366    1.0000 </r>
       <r>    6.5474    0.0000 </r>
       <r>    7.1894    0.0000 </r>
       <r>    7.5077    0.0000 </r>
       <r>    7.9180    0.0000 </r>
       <r>    8.0861    0.0000 </r>
       <r>    8.9956    0.0000 </r>
       <r>    9.6300    0.0000 </r>
       <r>    9.7111    0.0000 </r>
      </set>
      <set comment="kpoint 44">
       <r>   -4.7650    1.0000 </r>
       <r>   -4.1827    1.0000 </r>
       <r>   -3.8787    1.0000 </r>
       <r>   -2.5375    1.0000 </r>
       <r>   -1.3459    1.0000 </r>
       <r>   -0.3954    1.0000 </r>
       <r>    0.6113    1.0000 </r>
       <r>    0.6796    1.0000 </r>
       <r>    1.6688    1.0000 </r>
       <r>    2.6172    1.0000 </r>
       <r>    3.0124    1.0000 </r>
       <r>    3.1108    1.0000 </r>
       <r>    3.3734    1.0000 </r>
       <r>    3.7887    1.0000 </r>
       <r>    4.1102    1.0000 </r>
       <r>    4.8125    1.0000 </r>
       <r>    6.7653    0.0000 </r>
       <r>    7.3923    0.0000 </r>
       <r>    7.9661    0.0000 </r>
       <r>    8.2171    0.0000 </r>
       <r>    8.5624    0.0000 </r>
       <r>    9.1071    0.0000 </r>
       <r>    9.1274    0.0000 </r>
       <r>    9.5698    0.0000 </r>
      </set>
      <set comment="kpoint 45">
       <r>   -4.6242    1.0000 </r>
       <r>   -4.5425    1.0000 </r>
       <r>   -3.3238    1.0000 </r>
       <r>   -3.0563    1.0000 </r>
       <r>   -0.8199    1.0000 </r>
       <r>   -0.6825    1.0000 </r>
       <r>    0.2349    1.0000 </r>
       <r>    1.1154    1.0000 </r>
       <r>    1.7405    1.0000 </r>
       <r>    2.2642    1.0000 </r>
       <r>    2.9133    1.0000 </r>
       <r>    3.0973    1.0000 </r>
       <r>    3.6720    1.0000 </r>
       <r>    3.7122    1.0000 </r>
       <r>    4.2730    1.0000 </r>
       <r>    4.6785    1.0000 </r>
       <r>    7.2125    0.0000 </r>
       <r>    7.3987    0.0000 </r>
       <r>    7.8282    0.0000 </r>
       <r>    8.1363    0.0000 </r>
       <r>    8.2034    0.0000 </r>
       <r>    8.7808    0.0000 </r>
       <r>    9.0732    0.0000 </r>
[...]
       <r>   -3.4699    1.0000 </r>
       <r>   -2.2115    1.0000 </r>
       <r>   -1.8046    1.0000 </r>
       <r>   -0.9945    1.0000 </r>
       <r>   -0.8872    1.0000 </r>
       <r>   -0.3532    1.0000 </r>
       <r>    2.4297    1.0000 </r>
       <r>    2.4339    1.0000 </r>
       <r>    2.6601    1.0000 </r>
       <r>    2.9968    1.0000 </r>
       <r>    3.2620    1.0000 </r>
       <r>    3.9560    1.0000 </r>
       <r>    4.2640    1.0000 </r>
       <r>    4.4292    1.0000 </r>
       <r>    6.5616    0.0000 </r>
       <r>    6.8639    0.0000 </r>
       <r>    7.2908    0.0000 </r>
       <r>    7.6498    0.0000 </r>
       <r>    7.7386    0.0000 </r>
       <r>    8.3120    0.0000 </r>
       <r>    9.0040    0.0000 </r>
       <r>    9.3873    0.0000 </r>
      </set>
      <set comment="kpoint 138">
       <r>   -3.9498    1.0000 </r>
       <r>   -3.7189    1.0000 </r>
       <r>   -3.0436    1.0000 </r>
       <r>   -2.7303    1.0000 </r>
       <r>   -1.1959    1.0000 </r>
       <r>   -1.1225    1.0000 </r>
       <r>   -0.9125    1.0000 </r>
       <r>   -0.5419    1.0000 </r>
       <r>    1.9169    1.0000 </r>
       <r>    2.7930    1.0000 </r>
       <r>    3.0272    1.0000 </r>
       <r>    3.2031    1.0000 </r>
       <r>    3.3533    1.0000 </r>
       <r>    3.6936    1.0000 </r>
       <r>    4.0464    1.0000 </r>
       <r>    4.3617    1.0000 </r>
       <r>    6.4944    0.0000 </r>
       <r>    6.8083    0.0000 </r>
       <r>    7.0662    0.0000 </r>
       <r>    7.8676    0.0000 </r>
       <r>    7.9061    0.0000 </r>
       <r>    8.7158    0.0000 </r>
       <r>    9.1047    0.0000 </r>
       <r>    9.5654    0.0000 </r>
      </set>
      <set comment="kpoint 139">
       <r>   -3.7880    1.0000 </r>
       <r>   -3.4160    1.0000 </r>
       <r>   -3.4052    1.0000 </r>
       <r>   -2.0569    1.0000 </r>
       <r>   -1.9842    1.0000 </r>
       <r>   -1.1579    1.0000 </r>
       <r>   -0.6176    1.0000 </r>
       <r>   -0.6048    1.0000 </r>
       <r>    2.1841    1.0000 </r>
       <r>    2.1867    1.0000 </r>
       <r>    2.6146    1.0000 </r>
       <r>    2.9665    1.0000 </r>
       <r>    3.3679    1.0000 </r>
       <r>    3.3833    1.0000 </r>
       <r>    4.1333    1.0000 </r>
       <r>    4.4746    1.0000 </r>
       <r>    6.5285    0.0000 </r>
       <r>    6.9550    0.0000 </r>
       <r>    7.6473    0.0000 </r>
       <r>    7.7145    0.0000 </r>
       <r>    7.7292    0.0000 </r>
       <r>    9.0277    0.0000 </r>
       <r>    9.3064    0.0000 </r>
       <r>   10.2010    0.0000 </r>
      </set>
      <set comment="kpoint 140">
       <r>   -3.7516    1.0000 </r>
       <r>   -3.6324    1.0000 </r>
       <r>   -3.0688    1.0000 </r>
       <r>   -2.6019    1.0000 </r>
       <r>   -1.3744    1.0000 </r>
       <r>   -1.0584    1.0000 </r>
       <r>   -0.8140    1.0000 </r>
       <r>   -0.8023    1.0000 </r>
       <r>    2.1625    1.0000 </r>
       <r>    2.6220    1.0000 </r>
       <r>    2.7231    1.0000 </r>
       <r>    2.8120    1.0000 </r>
       <r>    2.9652    1.0000 </r>
       <r>    3.6371    1.0000 </r>
       <r>    3.8915    1.0000 </r>
       <r>    4.3550    1.0000 </r>
       <r>    6.9511    0.0000 </r>
       <r>    7.2170    0.0000 </r>
       <r>    7.2820    0.0000 </r>
       <r>    8.0115    0.0000 </r>
       <r>    8.2206    0.0000 </r>
       <r>    8.5268    0.0000 </r>
       <r>    8.9759    0.0000 </r>
       <r>    9.2771    0.0000 </r>
      </set>
     </set>
    </set>
   </array>
  </eigenvalues>
  <separator name="orbital magnetization" >
   <v name="MAGDIPOLOUT">      0.00000000      0.00000000      0.00000000</v>
  </separator>
  <dos>
   <i name="efermi">      5.83897237 </i>
   <total>
    <array>
     <dimension dim="1">gridpoints</dimension>
     <dimension dim="2">spin</dimension>
     <field>energy</field>
     <field>total</field>
     <field>integrated</field>
     <set>
      <set comment="spin 1">
       <r>    -7.0273     0.0000     0.0000 </r>
       <r>    -6.9634     0.0000     0.0000 </r>
       <r>    -6.8994     0.0000     0.0000 </r>
       <r>    -6.8354     0.0000     0.0000 </r>
       <r>    -6.7714     0.0000     0.0000 </r>
       <r>    -6.7075     0.0000     0.0000 </r>
       <r>    -6.6435     0.0000     0.0000 </r>
       <r>    -6.5795     0.0000     0.0000 </r>
       <r>    -6.5156     0.0000     0.0000 </r>
       <r>    -6.4516     0.0000     0.0000 </r>
       <r>    -6.3876     0.0000     0.0000 </r>
       <r>    -6.3236     0.0000     0.0000 </r>
       <r>    -6.2597     0.0000     0.0000 </r>
       <r>    -6.1957     0.0000     0.0000 </r>
       <r>    -6.1317     0.0616     0.0039 </r>
       <r>    -6.0678     0.4085     0.0301 </r>
       <r>    -6.0038     0.3994     0.0558 </r>
       <r>    -5.9398     0.7263     0.1023 </r>
       <r>    -5.8758     0.5365     0.1366 </r>
       <r>    -5.8119     0.8551     0.1913 </r>
       <r>    -5.7479     0.8481     0.2456 </r>
       <r>    -5.6839     0.4968     0.2774 </r>
       <r>    -5.6200     1.6234     0.3814 </r>
       <r>    -5.5560     1.0127     0.4461 </r>
       <r>    -5.4920     1.3188     0.5306 </r>
       <r>    -5.4280     0.7130     0.5762 </r>
       <r>    -5.3641     0.7186     0.6222 </r>
       <r>    -5.3001     1.5709     0.7227 </r>
       <r>    -5.2361     2.4154     0.8772 </r>
       <r>    -5.1722     1.0454     0.9443 </r>
       <r>    -5.1082     1.6485     1.0498 </r>
       <r>    -5.0442     1.4007     1.1394 </r>
       <r>    -4.9802     1.5196     1.2366 </r>
       <r>    -4.9163     0.9363     1.2966 </r>
       <r>    -4.8523     1.9107     1.4189 </r>
       <r>    -4.7883     1.7479     1.5307 </r>
       <r>    -4.7244     2.4014     1.6845 </r>
       <r>    -4.6604     2.8166     1.8648 </r>
       <r>    -4.5964     1.2817     1.9468 </r>
       <r>    -4.5324     1.9374     2.0707 </r>
       <r>    -4.4685     1.3862     2.1594 </r>
       <r>    -4.4045     2.0144     2.2883 </r>
       <r>    -4.3405     2.1605     2.4265 </r>
       <r>    -4.2766     2.9982     2.6183 </r>
       <r>    -4.2126     1.6991     2.7270 </r>
       <r>    -4.1486     3.5882     2.9566 </r>
       <r>    -4.0846     2.5003     3.1166 </r>
       <r>    -4.0207     2.0849     3.2500 </r>
       <r>    -3.9567     2.8091     3.4297 </r>
       <r>    -3.8927     1.8106     3.5459 </r>
       <r>    -3.8287     3.8052     3.7893 </r>
       <r>    -3.7648     4.4853     4.0763 </r>
       <r>    -3.7008     2.9895     4.2676 </r>
       <r>    -3.6368     4.5590     4.5594 </r>
       <r>    -3.5729     3.5038     4.7836 </r>
       <r>    -3.5089     2.8997     4.9692 </r>
       <r>    -3.4449     1.7573     5.0816 </r>
       <r>    -3.3809     2.9994     5.2735 </r>
       <r>    -3.3170     3.3407     5.4872 </r>
       <r>    -3.2530     3.7433     5.7267 </r>
       <r>    -3.1890     2.5802     5.8920 </r>
       <r>    -3.1251     2.6429     6.0611 </r>
       <r>    -3.0611     2.6677     6.2319 </r>
       <r>    -2.9971     2.1484     6.3695 </r>
       <r>    -2.9331     2.7903     6.5480 </r>
       <r>    -2.8692     1.9039     6.6699 </r>
       <r>    -2.8052     1.7107     6.7793 </r>
       <r>    -2.7412     2.8726     6.9632 </r>
       <r>    -2.6773     2.0846     7.0965 </r>
       <r>    -2.6133     1.7701     7.2098 </r>
       <r>    -2.5493     2.2060     7.3509 </r>
       <r>    -2.4853     2.2985     7.4980 </r>
       <r>    -2.4214     0.6466     7.5394 </r>
       <r>    -2.3574     1.5368     7.6378 </r>
       <r>    -2.2934     1.1725     7.7129 </r>
       <r>    -2.2295     0.9633     7.7746 </r>
       <r>    -2.1655     1.7650     7.8875 </r>
       <r>    -2.1015     1.2832     7.9697 </r>
       <r>    -2.0375     0.4729     8.0000 </r>
       <r>    -1.9736     0.1229     8.0079 </r>
       <r>    -1.9096     0.2471     8.0237 </r>
       <r>    -1.8456     0.0001     8.0237 </r>
       <r>    -1.7817     0.3945     8.0489 </r>
       <r>    -1.7177     1.2052     8.1260 </r>
       <r>    -1.6537     0.7386     8.1733 </r>
       <r>    -1.5897     1.5317     8.2713 </r>
       <r>    -1.5258     2.1959     8.4118 </r>
       <r>    -1.4618     0.7353     8.4588 </r>
       <r>    -1.3978     0.5922     8.4967 </r>
       <r>    -1.3339     2.1346     8.6332 </r>
       <r>    -1.2699     1.5536     8.7326 </r>
       <r>    -1.2059     2.3169     8.8808 </r>
       <r>    -1.1419     3.3403     9.0947 </r>
       <r>    -1.0780     4.6130     9.3898 </r>
       <r>    -1.0140     4.9370     9.7056 </r>
       <r>    -0.9500     6.6761    10.1328 </r>
       <r>    -0.8861     5.4275    10.4801 </r>
       <r>    -0.8221     3.9250    10.7313 </r>
       <r>    -0.7581     3.8523    10.9778 </r>
       <r>    -0.6941     3.2272    11.1842 </r>
       <r>    -0.6302     4.0359    11.4424 </r>
       <r>    -0.5662     2.7132    11.6160 </r>
       <r>    -0.5022     2.8750    11.7999 </r>
       <r>    -0.4382     2.0201    11.9292 </r>
       <r>    -0.3743     1.9739    12.0555 </r>
       <r>    -0.3103     2.8614    12.2386 </r>
       <r>    -0.2463     2.3032    12.3860 </r>
       <r>    -0.1824     2.4472    12.5426 </r>
       <r>    -0.1184     2.5522    12.7060 </r>
       <r>    -0.0544     2.3775    12.8581 </r>
       <r>     0.0096     0.5352    12.8923 </r>
       <r>     0.0735     1.5643    12.9924 </r>
       <r>     0.1375     1.2635    13.0733 </r>
       <r>     0.2015     2.6340    13.2418 </r>
       <r>     0.2654     0.9372    13.3018 </r>
       <r>     0.3294     1.4759    13.3962 </r>
       <r>     0.3934     1.7133    13.5058 </r>
       <r>     0.4574     1.4237    13.5969 </r>
       <r>     0.5213     1.6534    13.7028 </r>
       <r>     0.5853     1.7298    13.8134 </r>
       <r>     0.6493     2.0893    13.9471 </r>
       <r>     0.7132     1.3645    14.0344 </r>
       <r>     0.7772     0.8142    14.0865 </r>
       <r>     0.8412     1.3573    14.1734 </r>
       <r>     0.9052     0.5708    14.2101 </r>
       <r>     0.9691     0.5391    14.2447 </r>
       <r>     1.0331     1.2532    14.3249 </r>
       <r>     1.0971     0.9163    14.3835 </r>
       <r>     1.1610     1.0314    14.4495 </r>
       <r>     1.2250     1.2252    14.5279 </r>
       <r>     1.2890     0.4657    14.5577 </r>
       <r>     1.3530     0.9574    14.6189 </r>
       <r>     1.4169     1.5978    14.7212 </r>
       <r>     1.4809     3.6783    14.9565 </r>
       <r>     1.5449     0.7844    15.0067 </r>
       <r>     1.6088     3.3334    15.2199 </r>
       <r>     1.6728     5.3339    15.5612 </r>
       <r>     1.7368     5.4079    15.9072 </r>
       <r>     1.8008     5.0700    16.2316 </r>
       <r>     1.8647     4.4870    16.5187 </r>
       <r>     1.9287     4.5309    16.8089 </r>
       <r>     1.9927     3.9031    17.0587 </r>
       <r>     2.0566     3.1556    17.2607 </r>
       <r>     2.1206     5.0381    17.5831 </r>
       <r>     2.1846     6.4143    17.9934 </r>
       <r>     2.2486     2.9104    18.1797 </r>
       <r>     2.3125     3.4785    18.4023 </r>
       <r>     2.3765     2.9422    18.5908 </r>
       <r>     2.4405     5.7975    18.9618 </r>
       <r>     2.5044     3.6238    19.1938 </r>
       <r>     2.5684     3.1570    19.3960 </r>
       <r>     2.6324     4.6520    19.6938 </r>
       <r>     2.6964     6.1057    20.0845 </r>
       <r>     2.7603     4.8281    20.3935 </r>
       <r>     2.8243     5.3509    20.7360 </r>
       <r>     2.8883     4.7756    21.0415 </r>
       <r>     2.9523     6.6803    21.4690 </r>
       <r>     3.0162     4.5751    21.7619 </r>
       <r>     3.0802     6.5858    22.1832 </r>
       <r>     3.1442     5.7776    22.5529 </r>
       <r>     3.2081     4.2317    22.8236 </r>
       <r>     3.2721     7.0633    23.2756 </r>
       <r>     3.3361     9.0254    23.8531 </r>
       <r>     3.4001     5.9485    24.2342 </r>
       <r>     3.4640     5.1514    24.5638 </r>
       <r>     3.5280     3.6437    24.7970 </r>
       <r>     3.5920     3.6669    25.0318 </r>
       <r>     3.6559     6.3526    25.4383 </r>
       <r>     3.7199     6.0385    25.8249 </r>
       <r>     3.7839     6.6205    26.2488 </r>
       <r>     3.8479     5.0272    26.5705 </r>
       <r>     3.9118     4.4842    26.8575 </r>
       <r>     3.9758     3.3271    27.0705 </r>
       <r>     4.0398     5.6621    27.4327 </r>
       <r>     4.1037     5.8051    27.8042 </r>
       <r>     4.1677     5.5635    28.1603 </r>
       <r>     4.2317     5.0977    28.4864 </r>
       <r>     4.2957     3.4993    28.7105 </r>
       <r>     4.3596     5.2503    29.0464 </r>
       <r>     4.4236     4.1966    29.3150 </r>
       <r>     4.4876     4.2211    29.5850 </r>
       <r>     4.5515     4.5210    29.8743 </r>
       <r>     4.6155     3.6319    30.1068 </r>
       <r>     4.6795     3.9391    30.3588 </r>
       <r>     4.7435     2.3576    30.5097 </r>
       <r>     4.8074     3.0593    30.7054 </r>
       <r>     4.8714     3.2121    30.9110 </r>
       <r>     4.9354     2.5521    31.0744 </r>
       <r>     4.9993     1.3719    31.1622 </r>
       <r>     5.0633     1.7595    31.2747 </r>
       <r>     5.1273     2.2578    31.4193 </r>
       <r>     5.1913     2.2620    31.5640 </r>
       <r>     5.2552     1.0720    31.6327 </r>
       <r>     5.3192     1.1974    31.7093 </r>
       <r>     5.3832     1.1462    31.7827 </r>
       <r>     5.4471     0.6171    31.8223 </r>
       <r>     5.5111     0.7527    31.8704 </r>
       <r>     5.5751     0.3282    31.8914 </r>
       <r>     5.6391     0.7504    31.9394 </r>
       <r>     5.7030     0.7617    31.9882 </r>
       <r>     5.7670     0.1537    31.9980 </r>
       <r>     5.8310     0.0310    32.0000 </r>
       <r>     5.8949     0.0000    32.0000 </r>
       <r>     5.9589     0.0000    32.0000 </r>
       <r>     6.0229     0.0000    32.0000 </r>
       <r>     6.0869     0.0000    32.0000 </r>
       <r>     6.1508     0.0000    32.0000 </r>
       <r>     6.2148     0.0000    32.0000 </r>
       <r>     6.2788     0.0000    32.0000 </r>
       <r>     6.3427     0.0000    32.0000 </r>
       <r>     6.4067     0.2771    32.0177 </r>
       <r>     6.4707     0.5387    32.0522 </r>
       <r>     6.5347     0.7724    32.1016 </r>
       <r>     6.5986     0.9873    32.1648 </r>
       <r>     6.6626     1.1433    32.2379 </r>
       <r>     6.7266     1.7438    32.3498 </r>
       <r>     6.7906     0.9181    32.4087 </r>
       <r>     6.8545     0.9600    32.4701 </r>
       <r>     6.9185     1.4194    32.5609 </r>
       <r>     6.9825     2.4362    32.7168 </r>
       <r>     7.0464     2.3822    32.8692 </r>
       <r>     7.1104     2.8576    33.0522 </r>
       <r>     7.1744     2.0262    33.1820 </r>
       <r>     7.2384     2.3943    33.3351 </r>
       <r>     7.3023     4.1675    33.6018 </r>
       <r>     7.3663     2.4236    33.7570 </r>
       <r>     7.4303     2.9667    33.9469 </r>
       <r>     7.4942     3.1019    34.1455 </r>
       <r>     7.5582     3.3573    34.3604 </r>
       <r>     7.6222     3.9671    34.6144 </r>
       <r>     7.6862     3.8510    34.8608 </r>
       <r>     7.7501     4.2685    35.1342 </r>
       <r>     7.8141     4.6055    35.4290 </r>
       <r>     7.8781     5.3850    35.7736 </r>
       <r>     7.9420     5.2767    36.1111 </r>
       <r>     8.0060     6.3367    36.5166 </r>
       <r>     8.0700     5.9295    36.8962 </r>
       <r>     8.1340     6.1635    37.2907 </r>
       <r>     8.1979     6.4726    37.7049 </r>
       <r>     8.2619     6.0092    38.0894 </r>
       <r>     8.3259     7.4179    38.5644 </r>
       <r>     8.3898     6.8113    39.0004 </r>
       <r>     8.4538     3.9349    39.2523 </r>
       <r>     8.5178     4.6366    39.5491 </r>
       <r>     8.5818     5.1614    39.8796 </r>
       <r>     8.6457     4.0642    40.1397 </r>
       <r>     8.7097     3.9042    40.3896 </r>
       <r>     8.7737     3.3587    40.6044 </r>
       <r>     8.8376     6.2741    41.0061 </r>
       <r>     8.9016     5.6136    41.3655 </r>
       <r>     8.9656     5.8092    41.7374 </r>
       <r>     9.0296     8.5577    42.2848 </r>
       <r>     9.0935     7.2944    42.7520 </r>
       <r>     9.1575     7.7509    43.2482 </r>
       <r>     9.2215     5.6708    43.6113 </r>
       <r>     9.2854     5.6079    43.9704 </r>
       <r>     9.3494     5.4958    44.3222 </r>
       <r>     9.4134     4.0062    44.5790 </r>
       <r>     9.4774     4.6382    44.8760 </r>
       <r>     9.5413     6.7957    45.3108 </r>
       <r>     9.6053     4.9713    45.6288 </r>
       <r>     9.6693     6.0088    46.0132 </r>
       <r>     9.7332     3.9277    46.2648 </r>
       <r>     9.7972     7.0555    46.7164 </r>
       <r>     9.8612     1.9922    46.8442 </r>
       <r>     9.9252     2.4399    47.0003 </r>
       <r>     9.9891     2.8563    47.1830 </r>
       <r>    10.0531     1.9055    47.3051 </r>
       <r>    10.1171     1.1153    47.3765 </r>
       <r>    10.1811     1.6601    47.4828 </r>
       <r>    10.2450     1.3194    47.5672 </r>
       <r>    10.3090     0.9698    47.6293 </r>
       <r>    10.3730     0.2775    47.6471 </r>
       <r>    10.4369     0.6308    47.6874 </r>
       <r>    10.5009     0.5700    47.7239 </r>
       <r>    10.5649     0.2462    47.7396 </r>
       <r>    10.6289     0.2680    47.7568 </r>
       <r>    10.6928     0.7186    47.8028 </r>
       <r>    10.7568     0.2467    47.8185 </r>
       <r>    10.8208     0.1910    47.8308 </r>
       <r>    10.8847     0.7481    47.8786 </r>
       <r>    10.9487     0.5407    47.9132 </r>
       <r>    11.0127     0.2467    47.9290 </r>
       <r>    11.0767     0.7398    47.9763 </r>
       <r>    11.1406     0.0000    47.9763 </r>
       <r>    11.2046     0.0000    47.9763 </r>
       <r>    11.2686     0.0003    47.9764 </r>
       <r>    11.3325     0.3697    48.0000 </r>
       <r>    11.3965     0.0000    48.0000 </r>
       <r>    11.4605     0.0000    48.0000 </r>
       <r>    11.5245     0.0000    48.0000 </r>
       <r>    11.5884     0.0000    48.0000 </r>
       <r>    11.6524     0.0000    48.0000 </r>
       <r>    11.7164     0.0000    48.0000 </r>
       <r>    11.7803     0.0000    48.0000 </r>
       <r>    11.8443     0.0000    48.0000 </r>
       <r>    11.9083     0.0000    48.0000 </r>
       <r>    11.9723     0.0000    48.0000 </r>
       <r>    12.0362     0.0000    48.0000 </r>
       <r>    12.1002     0.0000    48.0000 </r>
       <r>    12.1642     0.0000    48.0000 </r>
      </set>
     </set>
    </array>
   </total>
  </dos>
 </calculation>
 <structure name="finalpos" >
  <crystal>
   <varray name="basis" >
    <v>      -8.16555356       5.44370237       8.16555356 </v>
    <v>       2.72185119       0.00000000       2.72185119 </v>
    <v>       2.72185119       2.72185119       0.00000000 </v>
   </varray>
   <i name="volume">    161.31810740 </i>
   <varray name="rec_basis" >
    <v>      -0.04592463       0.04592463       0.04592463 </v>
    <v>       0.13777388      -0.13777388       0.22962313 </v>
    <v>       0.09184925       0.27554776      -0.09184925 </v>
   </varray>
  </crystal>
  <varray name="positions" >
   <v>       0.00078329       0.00000000       0.00000000 </v>
   <v>       0.25000000       0.25000000       0.50000000 </v>
   <v>       0.50000000       0.50000000       0.00000000 </v>
   <v>       0.75000000       0.75000000       0.50000000 </v>
   <v>       0.06250000       0.31250000       0.37500000 </v>
   <v>       0.31250000       0.56250000       0.87500000 </v>
   <v>       0.56250000       0.81250000       0.37500000 </v>
   <v>       0.81250000       0.06250000       0.87500000 </v>
  </varray>
 </structure>
</modeling>
