8    
4    

1    
  0.0040824829046386  -0.0081649658092773   0.0040824829046386
  -0.0554439400    0.1072048700   -0.0580269100
  -0.0049947800    0.0071538800   -0.0024239400
   0.0026826100   -0.0020010200    0.0058000600
   0.0042534900   -0.0035568000    0.0010980200
  -0.0100363500   -0.0362509100    0.0294511900
   0.0252959400   -0.0303291100   -0.0141688300
   0.0004612500   -0.0005885400    0.0007400400
   0.0377817800   -0.0416323800    0.0375303600

1    
 -0.0040824829046386   0.0081649658092773  -0.0040824829046386
   0.0576811200   -0.1083145300    0.0602559100
   0.0050561500   -0.0071429800    0.0024545900
  -0.0026765100    0.0020283800   -0.0057850100
  -0.0042220800    0.0035889900   -0.0011382200
   0.0092570100    0.0360204400   -0.0295003600
  -0.0251382000    0.0301871400    0.0136451700
  -0.0004661000    0.0005456500   -0.0007212600
  -0.0394913900    0.0430869000   -0.0392108200

1    
 -0.0040824829046386   0.0040824829046386   0.0081649658092773
   0.0526678300   -0.0526678300   -0.1147344800
  -0.0004294800    0.0004294800    0.0085734200
  -0.0009069600    0.0009069600   -0.0028797800
   0.0022146900   -0.0022146900    0.0002508000
  -0.0083278600    0.0083278600    0.0581065700
  -0.0414887600    0.0414887600    0.0429609800
  -0.0000151100    0.0000151100    0.0004814800
  -0.0037143500    0.0037143500    0.0072410100

1    
  0.0040824829046386  -0.0040824829046386  -0.0081649658092773
  -0.0548826100    0.0548826100    0.1157801100
   0.0004254200   -0.0004254200   -0.0085784100
   0.0008892800   -0.0008892800    0.0028817400
  -0.0022213300    0.0022213300   -0.0002197400
   0.0086811400   -0.0086811400   -0.0578540100
   0.0431759700   -0.0431759700   -0.0444033900
   0.0000186600   -0.0000186600   -0.0004808600
   0.0039134700   -0.0039134700   -0.0071254300
