phonopy:
  version: "2.33.3"
  frequency_unit_conversion_factor: 15.633302
  symmetry_tolerance: 1.00000e-05
  configuration:
    create_force_constants: "True"
    dim: "4 0 0 0 4 0 0 0 3"

physical_unit:
  atomic_mass: "AMU"
  length: "angstrom"
  force_constants: "eV/angstrom^2"

space_group:
  type: "P6_3/mmc"
  number: 194
  Hall_symbol: "-P 6c 2c"

supercell_matrix:
- [   4,   0,   0 ]
- [   0,   4,   0 ]
- [   0,   0,   3 ]

primitive_cell:
  lattice:
  - [     1.954294045411000,     0.000000000000000,     0.000000000000000 ] # a
  - [    -0.977147022706000,     1.692468289791000,     0.000000000000000 ] # b
  - [     0.000000000000000,     0.000000000000000,     3.187707815150000 ] # c
  points:
  - symbol: He # 1
    coordinates: [  0.333333333333000,  0.666666666667000,  0.250000000000000 ]
    mass: 4.002602
  - symbol: He # 2
    coordinates: [  0.666666666667000,  0.333333333333000,  0.750000000000000 ]
    mass: 4.002602
  reciprocal_lattice: # without 2pi
  - [     0.511693725081015,     0.295426509918245,     0.000000000000000 ] # a*
  - [     0.000000000000000,     0.590853019836187,     0.000000000000000 ] # b*
  - [     0.000000000000000,     0.000000000000000,     0.313705037597037 ] # c*

unit_cell:
  lattice:
  - [     1.954294045411000,     0.000000000000000,     0.000000000000000 ] # a
  - [    -0.977147022706000,     1.692468289791000,     0.000000000000000 ] # b
  - [     0.000000000000000,     0.000000000000000,     3.187707815150000 ] # c
  points:
  - symbol: He # 1
    coordinates: [  0.333333333333000,  0.666666666667000,  0.250000000000000 ]
    mass: 4.002602
    reduced_to: 1
  - symbol: He # 2
    coordinates: [  0.666666666667000,  0.333333333333000,  0.750000000000000 ]
    mass: 4.002602
    reduced_to: 2

supercell:
  lattice:
  - [     7.817176181644000,     0.000000000000000,     0.000000000000000 ] # a
  - [    -3.908588090824000,     6.769873159164000,     0.000000000000000 ] # b
  - [     0.000000000000000,     0.000000000000000,     9.563123445450000 ] # c
  points:
  - symbol: He # 1
    coordinates: [  0.083333333333250,  0.166666666666750,  0.083333333333333 ]
    mass: 4.002602
    reduced_to: 1
  - symbol: He # 2
    coordinates: [  0.333333333333250,  0.166666666666750,  0.083333333333333 ]
    mass: 4.002602
    reduced_to: 1
  - symbol: He # 3
    coordinates: [  0.583333333333250,  0.166666666666750,  0.083333333333333 ]
    mass: 4.002602
    reduced_to: 1
  - symbol: He # 4
    coordinates: [  0.833333333333250,  0.166666666666750,  0.083333333333333 ]
    mass: 4.002602
    reduced_to: 1
  - symbol: He # 5
    coordinates: [  0.083333333333250,  0.416666666666750,  0.083333333333333 ]
    mass: 4.002602
    reduced_to: 1
  - symbol: He # 6
    coordinates: [  0.333333333333250,  0.416666666666750,  0.083333333333333 ]
    mass: 4.002602
    reduced_to: 1
  - symbol: He # 7
    coordinates: [  0.583333333333250,  0.416666666666750,  0.083333333333333 ]
    mass: 4.002602
    reduced_to: 1
  - symbol: He # 8
    coordinates: [  0.833333333333250,  0.416666666666750,  0.083333333333333 ]
    mass: 4.002602
    reduced_to: 1
  - symbol: He # 9
    coordinates: [  0.083333333333250,  0.666666666666750,  0.083333333333333 ]
    mass: 4.002602
    reduced_to: 1
  - symbol: He # 10
    coordinates: [  0.333333333333250,  0.666666666666750,  0.083333333333333 ]
    mass: 4.002602
    reduced_to: 1
  - symbol: He # 11
    coordinates: [  0.583333333333250,  0.666666666666750,  0.083333333333333 ]
    mass: 4.002602
    reduced_to: 1
  - symbol: He # 12
    coordinates: [  0.833333333333250,  0.666666666666750,  0.083333333333333 ]
    mass: 4.002602
    reduced_to: 1
  - symbol: He # 13
    coordinates: [  0.083333333333250,  0.916666666666750,  0.083333333333333 ]
    mass: 4.002602
    reduced_to: 1
  - symbol: He # 14
    coordinates: [  0.333333333333250,  0.916666666666750,  0.083333333333333 ]
    mass: 4.002602
    reduced_to: 1
  - symbol: He # 15
    coordinates: [  0.583333333333250,  0.916666666666750,  0.083333333333333 ]
    mass: 4.002602
    reduced_to: 1
  - symbol: He # 16
    coordinates: [  0.833333333333250,  0.916666666666750,  0.083333333333333 ]
    mass: 4.002602
    reduced_to: 1
  - symbol: He # 17
    coordinates: [  0.083333333333250,  0.166666666666750,  0.416666666666667 ]
    mass: 4.002602
    reduced_to: 1
  - symbol: He # 18
    coordinates: [  0.333333333333250,  0.166666666666750,  0.416666666666667 ]
    mass: 4.002602
    reduced_to: 1
  - symbol: He # 19
    coordinates: [  0.583333333333250,  0.166666666666750,  0.416666666666667 ]
    mass: 4.002602
    reduced_to: 1
  - symbol: He # 20
    coordinates: [  0.833333333333250,  0.166666666666750,  0.416666666666667 ]
    mass: 4.002602
    reduced_to: 1
  - symbol: He # 21
    coordinates: [  0.083333333333250,  0.416666666666750,  0.416666666666667 ]
    mass: 4.002602
    reduced_to: 1
  - symbol: He # 22
    coordinates: [  0.333333333333250,  0.416666666666750,  0.416666666666667 ]
    mass: 4.002602
    reduced_to: 1
  - symbol: He # 23
    coordinates: [  0.583333333333250,  0.416666666666750,  0.416666666666667 ]
    mass: 4.002602
    reduced_to: 1
  - symbol: He # 24
    coordinates: [  0.833333333333250,  0.416666666666750,  0.416666666666667 ]
    mass: 4.002602
    reduced_to: 1
  - symbol: He # 25
    coordinates: [  0.083333333333250,  0.666666666666750,  0.416666666666667 ]
    mass: 4.002602
    reduced_to: 1
  - symbol: He # 26
    coordinates: [  0.333333333333250,  0.666666666666750,  0.416666666666667 ]
    mass: 4.002602
    reduced_to: 1
  - symbol: He # 27
    coordinates: [  0.583333333333250,  0.666666666666750,  0.416666666666667 ]
    mass: 4.002602
    reduced_to: 1
  - symbol: He # 28
    coordinates: [  0.833333333333250,  0.666666666666750,  0.416666666666667 ]
    mass: 4.002602
    reduced_to: 1
  - symbol: He # 29
    coordinates: [  0.083333333333250,  0.916666666666750,  0.416666666666667 ]
    mass: 4.002602
    reduced_to: 1
  - symbol: He # 30
    coordinates: [  0.333333333333250,  0.916666666666750,  0.416666666666667 ]
    mass: 4.002602
    reduced_to: 1
  - symbol: He # 31
    coordinates: [  0.583333333333250,  0.916666666666750,  0.416666666666667 ]
    mass: 4.002602
    reduced_to: 1
  - symbol: He # 32
    coordinates: [  0.833333333333250,  0.916666666666750,  0.416666666666667 ]
    mass: 4.002602
    reduced_to: 1
  - symbol: He # 33
    coordinates: [  0.083333333333250,  0.166666666666750,  0.750000000000000 ]
    mass: 4.002602
    reduced_to: 1
  - symbol: He # 34
    coordinates: [  0.333333333333250,  0.166666666666750,  0.750000000000000 ]
    mass: 4.002602
    reduced_to: 1
  - symbol: He # 35
    coordinates: [  0.583333333333250,  0.166666666666750,  0.750000000000000 ]
    mass: 4.002602
    reduced_to: 1
  - symbol: He # 36
    coordinates: [  0.833333333333250,  0.166666666666750,  0.750000000000000 ]
    mass: 4.002602
    reduced_to: 1
  - symbol: He # 37
    coordinates: [  0.083333333333250,  0.416666666666750,  0.750000000000000 ]
    mass: 4.002602
    reduced_to: 1
  - symbol: He # 38
    coordinates: [  0.333333333333250,  0.416666666666750,  0.750000000000000 ]
    mass: 4.002602
    reduced_to: 1
  - symbol: He # 39
    coordinates: [  0.583333333333250,  0.416666666666750,  0.750000000000000 ]
    mass: 4.002602
    reduced_to: 1
  - symbol: He # 40
    coordinates: [  0.833333333333250,  0.416666666666750,  0.750000000000000 ]
    mass: 4.002602
    reduced_to: 1
  - symbol: He # 41
    coordinates: [  0.083333333333250,  0.666666666666750,  0.750000000000000 ]
    mass: 4.002602
    reduced_to: 1
  - symbol: He # 42
    coordinates: [  0.333333333333250,  0.666666666666750,  0.750000000000000 ]
    mass: 4.002602
    reduced_to: 1
  - symbol: He # 43
    coordinates: [  0.583333333333250,  0.666666666666750,  0.750000000000000 ]
    mass: 4.002602
    reduced_to: 1
  - symbol: He # 44
    coordinates: [  0.833333333333250,  0.666666666666750,  0.750000000000000 ]
    mass: 4.002602
    reduced_to: 1
  - symbol: He # 45
    coordinates: [  0.083333333333250,  0.916666666666750,  0.750000000000000 ]
    mass: 4.002602
    reduced_to: 1
  - symbol: He # 46
    coordinates: [  0.333333333333250,  0.916666666666750,  0.750000000000000 ]
    mass: 4.002602
    reduced_to: 1
  - symbol: He # 47
    coordinates: [  0.583333333333250,  0.916666666666750,  0.750000000000000 ]
    mass: 4.002602
    reduced_to: 1
  - symbol: He # 48
    coordinates: [  0.833333333333250,  0.916666666666750,  0.750000000000000 ]
    mass: 4.002602
    reduced_to: 1
  - symbol: He # 49
    coordinates: [  0.166666666666750,  0.083333333333250,  0.250000000000000 ]
    mass: 4.002602
    reduced_to: 49
  - symbol: He # 50
    coordinates: [  0.416666666666750,  0.083333333333250,  0.250000000000000 ]
    mass: 4.002602
    reduced_to: 49
  - symbol: He # 51
    coordinates: [  0.666666666666750,  0.083333333333250,  0.250000000000000 ]
    mass: 4.002602
    reduced_to: 49
  - symbol: He # 52
    coordinates: [  0.916666666666750,  0.083333333333250,  0.250000000000000 ]
    mass: 4.002602
    reduced_to: 49
  - symbol: He # 53
    coordinates: [  0.166666666666750,  0.333333333333250,  0.250000000000000 ]
    mass: 4.002602
    reduced_to: 49
  - symbol: He # 54
    coordinates: [  0.416666666666750,  0.333333333333250,  0.250000000000000 ]
    mass: 4.002602
    reduced_to: 49
  - symbol: He # 55
    coordinates: [  0.666666666666750,  0.333333333333250,  0.250000000000000 ]
    mass: 4.002602
    reduced_to: 49
  - symbol: He # 56
    coordinates: [  0.916666666666750,  0.333333333333250,  0.250000000000000 ]
    mass: 4.002602
    reduced_to: 49
  - symbol: He # 57
    coordinates: [  0.166666666666750,  0.583333333333250,  0.250000000000000 ]
    mass: 4.002602
    reduced_to: 49
  - symbol: He # 58
    coordinates: [  0.416666666666750,  0.583333333333250,  0.250000000000000 ]
    mass: 4.002602
    reduced_to: 49
  - symbol: He # 59
    coordinates: [  0.666666666666750,  0.583333333333250,  0.250000000000000 ]
    mass: 4.002602
    reduced_to: 49
  - symbol: He # 60
    coordinates: [  0.916666666666750,  0.583333333333250,  0.250000000000000 ]
    mass: 4.002602
    reduced_to: 49
  - symbol: He # 61
    coordinates: [  0.166666666666750,  0.833333333333250,  0.250000000000000 ]
    mass: 4.002602
    reduced_to: 49
  - symbol: He # 62
    coordinates: [  0.416666666666750,  0.833333333333250,  0.250000000000000 ]
    mass: 4.002602
    reduced_to: 49
  - symbol: He # 63
    coordinates: [  0.666666666666750,  0.833333333333250,  0.250000000000000 ]
    mass: 4.002602
    reduced_to: 49
  - symbol: He # 64
    coordinates: [  0.916666666666750,  0.833333333333250,  0.250000000000000 ]
    mass: 4.002602
    reduced_to: 49
  - symbol: He # 65
    coordinates: [  0.166666666666750,  0.083333333333250,  0.583333333333333 ]
    mass: 4.002602
    reduced_to: 49
  - symbol: He # 66
    coordinates: [  0.416666666666750,  0.083333333333250,  0.583333333333333 ]
    mass: 4.002602
    reduced_to: 49
  - symbol: He # 67
    coordinates: [  0.666666666666750,  0.083333333333250,  0.583333333333333 ]
    mass: 4.002602
    reduced_to: 49
  - symbol: He # 68
    coordinates: [  0.916666666666750,  0.083333333333250,  0.583333333333333 ]
    mass: 4.002602
    reduced_to: 49
  - symbol: He # 69
    coordinates: [  0.166666666666750,  0.333333333333250,  0.583333333333333 ]
    mass: 4.002602
    reduced_to: 49
  - symbol: He # 70
    coordinates: [  0.416666666666750,  0.333333333333250,  0.583333333333333 ]
    mass: 4.002602
    reduced_to: 49
  - symbol: He # 71
    coordinates: [  0.666666666666750,  0.333333333333250,  0.583333333333333 ]
    mass: 4.002602
    reduced_to: 49
  - symbol: He # 72
    coordinates: [  0.916666666666750,  0.333333333333250,  0.583333333333333 ]
    mass: 4.002602
    reduced_to: 49
  - symbol: He # 73
    coordinates: [  0.166666666666750,  0.583333333333250,  0.583333333333333 ]
    mass: 4.002602
    reduced_to: 49
  - symbol: He # 74
    coordinates: [  0.416666666666750,  0.583333333333250,  0.583333333333333 ]
    mass: 4.002602
    reduced_to: 49
  - symbol: He # 75
    coordinates: [  0.666666666666750,  0.583333333333250,  0.583333333333333 ]
    mass: 4.002602
    reduced_to: 49
  - symbol: He # 76
    coordinates: [  0.916666666666750,  0.583333333333250,  0.583333333333333 ]
    mass: 4.002602
    reduced_to: 49
  - symbol: He # 77
    coordinates: [  0.166666666666750,  0.833333333333250,  0.583333333333333 ]
    mass: 4.002602
    reduced_to: 49
  - symbol: He # 78
    coordinates: [  0.416666666666750,  0.833333333333250,  0.583333333333333 ]
    mass: 4.002602
    reduced_to: 49
  - symbol: He # 79
    coordinates: [  0.666666666666750,  0.833333333333250,  0.583333333333333 ]
    mass: 4.002602
    reduced_to: 49
  - symbol: He # 80
    coordinates: [  0.916666666666750,  0.833333333333250,  0.583333333333333 ]
    mass: 4.002602
    reduced_to: 49
  - symbol: He # 81
    coordinates: [  0.166666666666750,  0.083333333333250,  0.916666666666667 ]
    mass: 4.002602
    reduced_to: 49
  - symbol: He # 82
    coordinates: [  0.416666666666750,  0.083333333333250,  0.916666666666667 ]
    mass: 4.002602
    reduced_to: 49
  - symbol: He # 83
    coordinates: [  0.666666666666750,  0.083333333333250,  0.916666666666667 ]
    mass: 4.002602
    reduced_to: 49
  - symbol: He # 84
    coordinates: [  0.916666666666750,  0.083333333333250,  0.916666666666667 ]
    mass: 4.002602
    reduced_to: 49
  - symbol: He # 85
    coordinates: [  0.166666666666750,  0.333333333333250,  0.916666666666667 ]
    mass: 4.002602
    reduced_to: 49
  - symbol: He # 86
    coordinates: [  0.416666666666750,  0.333333333333250,  0.916666666666667 ]
    mass: 4.002602
    reduced_to: 49
  - symbol: He # 87
    coordinates: [  0.666666666666750,  0.333333333333250,  0.916666666666667 ]
    mass: 4.002602
    reduced_to: 49
  - symbol: He # 88
    coordinates: [  0.916666666666750,  0.333333333333250,  0.916666666666667 ]
    mass: 4.002602
    reduced_to: 49
  - symbol: He # 89
    coordinates: [  0.166666666666750,  0.583333333333250,  0.916666666666667 ]
    mass: 4.002602
    reduced_to: 49
  - symbol: He # 90
    coordinates: [  0.416666666666750,  0.583333333333250,  0.916666666666667 ]
    mass: 4.002602
    reduced_to: 49
  - symbol: He # 91
    coordinates: [  0.666666666666750,  0.583333333333250,  0.916666666666667 ]
    mass: 4.002602
    reduced_to: 49
  - symbol: He # 92
    coordinates: [  0.916666666666750,  0.583333333333250,  0.916666666666667 ]
    mass: 4.002602
    reduced_to: 49
  - symbol: He # 93
    coordinates: [  0.166666666666750,  0.833333333333250,  0.916666666666667 ]
    mass: 4.002602
    reduced_to: 49
  - symbol: He # 94
    coordinates: [  0.416666666666750,  0.833333333333250,  0.916666666666667 ]
    mass: 4.002602
    reduced_to: 49
  - symbol: He # 95
    coordinates: [  0.666666666666750,  0.833333333333250,  0.916666666666667 ]
    mass: 4.002602
    reduced_to: 49
  - symbol: He # 96
    coordinates: [  0.916666666666750,  0.833333333333250,  0.916666666666667 ]
    mass: 4.002602
    reduced_to: 49

force_constants:
  format: "full"
  shape: [ 96, 96 ]
  elements:
  - # (1, 1)
    - [     3.508561436222588,     0.000000000001036,     0.000000000000000 ]
    - [     0.000000000001036,     3.508561436220871,     0.000000000000000 ]
    - [     0.000000000000000,     0.000000000000000,     3.491416866768301 ]
  - # (1, 2)
    - [    -0.975255112834293,     0.036820797209442,     0.000000000000000 ]
    - [    -0.036820797210018,     0.055396178399185,     0.000000000000000 ]
    - [     0.000000000000000,    -0.000000000000000,     0.069842500341322 ]
  - # (1, 3)
    - [    -0.001885864482055,    -0.000000000000001,     0.000000000000000 ]
    - [    -0.000000000000001,    -0.001604531293365,     0.000000000000000 ]
    - [     0.000000000000000,     0.000000000000000,    -0.000686514125571 ]
  - # (1, 4)
    - [    -0.975255112834293,    -0.036820797210018,     0.000000000000000 ]
    - [     0.036820797209442,     0.055396178399185,     0.000000000000000 ]
    - [     0.000000000000000,    -0.000000000000000,     0.069842500341322 ]
  - # (1, 5)
    - [    -0.202266644409165,     0.483105897535285,     0.000000000000000 ]
    - [     0.409464303115825,    -0.717592290025302,    -0.000000000000000 ]
    - [     0.000000000000000,    -0.000000000000000,     0.069842500341322 ]
  - # (1, 6)
    - [    -0.202266644409164,    -0.483105897535405,     0.000000000000000 ]
    - [    -0.409464303115945,    -0.717592290025829,    -0.000000000000000 ]
    - [     0.000000000000000,    -0.000000000000000,     0.069842500341322 ]
  - # (1, 7)
    - [    -0.007056311801744,    -0.004918826777213,     0.000000000000000 ]
    - [    -0.004918826777213,    -0.001376539873905,     0.000000000000000 ]
    - [     0.000000000000000,    -0.000000000000000,    -0.000162835983043 ]
  - # (1, 8)
    - [    -0.007056311801744,     0.004918826777209,     0.000000000000000 ]
    - [     0.004918826777209,    -0.001376539873900,    -0.000000000000000 ]
    - [     0.000000000000000,    -0.000000000000000,    -0.000162835983043 ]
  - # (1, 9)
    - [    -0.001674864590538,     0.000121820844166,     0.000000000000000 ]
    - [     0.000121820844166,    -0.001815531184882,    -0.000000000000000 ]
    - [     0.000000000000000,    -0.000000000000000,    -0.000686514125572 ]
  - # (1, 10)
    - [     0.001463346090018,     0.000000000000001,     0.000000000000000 ]
    - [     0.000000000000001,    -0.009896197765659,    -0.000000000000000 ]
    - [     0.000000000000000,    -0.000000000000000,    -0.000162835983043 ]
  - # (1, 11)
    - [    -0.001674864590538,    -0.000121820844167,     0.000000000000000 ]
    - [    -0.000121820844167,    -0.001815531184882,     0.000000000000000 ]
    - [     0.000000000000000,    -0.000000000000000,    -0.000686514125571 ]
  - # (1, 12)
    - [     0.001463346090018,     0.000000000000001,     0.000000000000000 ]
    - [     0.000000000000001,    -0.009896197765659,    -0.000000000000000 ]
    - [     0.000000000000000,    -0.000000000000000,    -0.000162835983043 ]
  - # (1, 13)
    - [    -0.202266644409165,     0.409464303115825,     0.000000000000000 ]
    - [     0.483105897535285,    -0.717592290025302,     0.000000000000000 ]
    - [     0.000000000000000,     0.000000000000000,     0.069842500341322 ]
  - # (1, 14)
    - [    -0.007056311801744,     0.004918826777209,     0.000000000000000 ]
    - [     0.004918826777209,    -0.001376539873900,    -0.000000000000000 ]
    - [     0.000000000000000,     0.000000000000000,    -0.000162835983043 ]
  - # (1, 15)
    - [    -0.007056311801744,    -0.004918826777213,     0.000000000000000 ]
    - [    -0.004918826777213,    -0.001376539873905,    -0.000000000000000 ]
    - [     0.000000000000000,    -0.000000000000000,    -0.000162835983043 ]
  - # (1, 16)
    - [    -0.202266644409164,    -0.409464303115945,     0.000000000000000 ]
    - [    -0.483105897535405,    -0.717592290025829,    -0.000000000000000 ]
    - [     0.000000000000000,     0.000000000000000,     0.069842500341322 ]
  - # (1, 17)
    - [     0.001826015823092,     0.000000000000000,     0.000000000000000 ]
    - [     0.000000000000000,     0.001826015823091,    -0.000000000000000 ]
    - [     0.000000000000000,    -0.000000000000000,    -0.023148756151491 ]
  - # (1, 18)
    - [    -0.000370095414860,    -0.000159372130663,     0.000096076022133 ]
    - [     0.000159372130663,     0.000114580606281,     0.000439276259487 ]
    - [     0.000096076022133,    -0.000439276259487,    -0.000683519434829 ]
  - # (1, 19)
    - [    -0.000151657933799,    -0.000000000000000,     0.000000000000000 ]
    - [    -0.000000000000000,     0.000069716173613,    -0.000029215275895 ]
    - [     0.000000000000000,     0.000029215275895,     0.000176660557261 ]
  - # (1, 20)
    - [    -0.000370095414859,     0.000159372130663,    -0.000096076022133 ]
    - [    -0.000159372130663,     0.000114580606281,     0.000439276259487 ]
    - [    -0.000096076022133,    -0.000439276259487,    -0.000683519434829 ]
  - # (1, 21)
    - [    -0.000006588399004,     0.000050498742793,    -0.000428462411062 ]
    - [     0.000369243004119,    -0.000248926409574,    -0.000136433853882 ]
    - [     0.000332386388929,     0.000302842405605,    -0.000683519434829 ]
  - # (1, 22)
    - [    -0.000006588399004,    -0.000050498742793,     0.000428462411062 ]
    - [    -0.000369243004119,    -0.000248926409575,    -0.000136433853882 ]
    - [    -0.000332386388929,     0.000302842405605,    -0.000683519434829 ]
  - # (1, 23)
    - [     0.000126579148431,     0.000029228098310,     0.000186112500042 ]
    - [     0.000029228098310,     0.000092829447577,     0.000107452101999 ]
    - [     0.000000981859011,     0.000000566876565,     0.000406018227092 ]
  - # (1, 24)
    - [     0.000126579148431,    -0.000029228098310,    -0.000186112500042 ]
    - [    -0.000029228098310,     0.000092829447577,     0.000107452101999 ]
    - [    -0.000000981859011,     0.000000566876565,     0.000406018227092 ]
  - # (1, 25)
    - [     0.000014372646760,     0.000095857800380,     0.000025301171104 ]
    - [     0.000095857800380,    -0.000096314406946,     0.000014607637948 ]
    - [    -0.000025301171104,    -0.000014607637948,     0.000176660557261 ]
  - # (1, 26)
    - [     0.000075954597150,     0.000000000000000,     0.000000000000000 ]
    - [     0.000000000000000,     0.000143453998858,     0.000001133753129 ]
    - [     0.000000000000000,     0.000214904203997,     0.000406018227092 ]
  - # (1, 27)
    - [     0.000014372646760,    -0.000095857800380,    -0.000025301171104 ]
    - [    -0.000095857800380,    -0.000096314406946,     0.000014607637948 ]
    - [     0.000025301171104,    -0.000014607637948,     0.000176660557261 ]
  - # (1, 28)
    - [     0.000075954597150,     0.000000000000000,     0.000000000000000 ]
    - [     0.000000000000000,     0.000143453998858,    -0.000214904203997 ]
    - [     0.000000000000000,    -0.000001133753129,     0.000406018227092 ]
  - # (1, 29)
    - [    -0.000006588399004,     0.000369243004119,    -0.000332386388929 ]
    - [     0.000050498742793,    -0.000248926409574,    -0.000302842405605 ]
    - [     0.000428462411062,     0.000136433853882,    -0.000683519434829 ]
  - # (1, 30)
    - [     0.000126579148431,    -0.000029228098310,     0.000000981859011 ]
    - [    -0.000029228098310,     0.000092829447577,    -0.000000566876565 ]
    - [     0.000186112500042,    -0.000107452101999,     0.000406018227092 ]
  - # (1, 31)
    - [     0.000126579148431,     0.000029228098310,    -0.000000981859011 ]
    - [     0.000029228098310,     0.000092829447578,    -0.000000566876565 ]
    - [    -0.000186112500042,    -0.000107452101999,     0.000406018227092 ]
  - # (1, 32)
    - [    -0.000006588399004,    -0.000369243004119,     0.000332386388929 ]
    - [    -0.000050498742793,    -0.000248926409574,    -0.000302842405605 ]
    - [    -0.000428462411062,     0.000136433853882,    -0.000683519434829 ]
  - # (1, 33)
    - [     0.001826015823092,     0.000000000000000,     0.000000000000000 ]
    - [     0.000000000000000,     0.001826015823091,    -0.000000000000000 ]
    - [     0.000000000000000,    -0.000000000000000,    -0.023148756151491 ]
  - # (1, 34)
    - [    -0.000370095414859,    -0.000159372130663,    -0.000096076022133 ]
    - [     0.000159372130663,     0.000114580606281,    -0.000439276259487 ]
    - [    -0.000096076022133,     0.000439276259487,    -0.000683519434829 ]
  - # (1, 35)
    - [    -0.000151657933799,    -0.000000000000000,     0.000000000000000 ]
    - [    -0.000000000000000,     0.000069716173613,     0.000029215275895 ]
    - [     0.000000000000000,    -0.000029215275895,     0.000176660557261 ]
  - # (1, 36)
    - [    -0.000370095414860,     0.000159372130663,     0.000096076022133 ]
    - [    -0.000159372130663,     0.000114580606281,    -0.000439276259487 ]
    - [     0.000096076022133,     0.000439276259487,    -0.000683519434829 ]
  - # (1, 37)
    - [    -0.000006588399004,     0.000050498742793,     0.000428462411062 ]
    - [     0.000369243004119,    -0.000248926409574,     0.000136433853882 ]
    - [    -0.000332386388929,    -0.000302842405605,    -0.000683519434829 ]
  - # (1, 38)
    - [    -0.000006588399004,    -0.000050498742793,    -0.000428462411062 ]
    - [    -0.000369243004119,    -0.000248926409574,     0.000136433853882 ]
    - [     0.000332386388929,    -0.000302842405605,    -0.000683519434829 ]
  - # (1, 39)
    - [     0.000126579148431,     0.000029228098310,    -0.000186112500042 ]
    - [     0.000029228098310,     0.000092829447578,    -0.000107452101999 ]
    - [    -0.000000981859011,    -0.000000566876565,     0.000406018227092 ]
  - # (1, 40)
    - [     0.000126579148431,    -0.000029228098310,     0.000186112500042 ]
    - [    -0.000029228098310,     0.000092829447577,    -0.000107452101999 ]
    - [     0.000000981859011,    -0.000000566876565,     0.000406018227092 ]
  - # (1, 41)
    - [     0.000014372646760,     0.000095857800380,    -0.000025301171104 ]
    - [     0.000095857800380,    -0.000096314406946,    -0.000014607637948 ]
    - [     0.000025301171104,     0.000014607637948,     0.000176660557261 ]
  - # (1, 42)
    - [     0.000075954597150,     0.000000000000000,     0.000000000000000 ]
    - [     0.000000000000000,     0.000143453998858,    -0.000001133753129 ]
    - [     0.000000000000000,    -0.000214904203997,     0.000406018227092 ]
  - # (1, 43)
    - [     0.000014372646760,    -0.000095857800380,     0.000025301171104 ]
    - [    -0.000095857800380,    -0.000096314406946,    -0.000014607637948 ]
    - [    -0.000025301171104,     0.000014607637948,     0.000176660557261 ]
  - # (1, 44)
    - [     0.000075954597150,     0.000000000000000,     0.000000000000000 ]
    - [     0.000000000000000,     0.000143453998858,     0.000214904203997 ]
    - [     0.000000000000000,     0.000001133753129,     0.000406018227092 ]
  - # (1, 45)
    - [    -0.000006588399004,     0.000369243004119,     0.000332386388929 ]
    - [     0.000050498742793,    -0.000248926409574,     0.000302842405605 ]
    - [    -0.000428462411062,    -0.000136433853882,    -0.000683519434829 ]
  - # (1, 46)
    - [     0.000126579148431,    -0.000029228098310,    -0.000000981859011 ]
    - [    -0.000029228098310,     0.000092829447577,     0.000000566876565 ]
    - [    -0.000186112500042,     0.000107452101999,     0.000406018227092 ]
  - # (1, 47)
    - [     0.000126579148431,     0.000029228098310,     0.000000981859011 ]
    - [     0.000029228098310,     0.000092829447577,     0.000000566876565 ]
    - [     0.000186112500042,     0.000107452101999,     0.000406018227092 ]
  - # (1, 48)
    - [    -0.000006588399004,    -0.000369243004119,    -0.000332386388929 ]
    - [    -0.000050498742793,    -0.000248926409575,     0.000302842405605 ]
    - [     0.000428462411062,    -0.000136433853882,    -0.000683519434829 ]
  - # (1, 49)
    - [    -0.206162455452459,     0.165437270446096,    -0.419840843794703 ]
    - [     0.165437270446096,    -0.015131950200136,     0.242395224181488 ]
    - [    -0.419840843794703,     0.242395224181488,    -0.639890599765333 ]
  - # (1, 50)
    - [    -0.009342411825413,     0.002292804526173,    -0.004907276047979 ]
    - [     0.002292804526173,    -0.000976194211093,     0.000786311292901 ]
    - [    -0.004907276047979,     0.000786311292901,    -0.001951504272239 ]
  - # (1, 51)
    - [    -0.009342416687160,    -0.002292808192299,     0.004907285331811 ]
    - [    -0.002292808192299,    -0.000976193277479,     0.000786324935036 ]
    - [     0.004907285331811,     0.000786324935036,    -0.001951515332138 ]
  - # (1, 52)
    - [    -0.206162459194608,    -0.165437266780097,     0.419840834510870 ]
    - [    -0.165437266780097,    -0.015131951752760,     0.242395221101424 ]
    - [     0.419840834510870,     0.242395221101424,    -0.639890616592643 ]
  - # (1, 53)
    - [     0.080383297151056,     0.000000002781261,    -0.000000001974288 ]
    - [     0.000000002781261,    -0.301677708098186,    -0.484790438783033 ]
    - [    -0.000000001974288,    -0.484790438783033,    -0.639890616592643 ]
  - # (1, 54)
    - [    -0.000137730874299,    -0.000840343106938,    -0.001252239315785 ]
    - [    -0.000840343106938,     0.000832615632725,    -0.000722972358282 ]
    - [    -0.001252239315785,    -0.000722972358282,     0.000259040083528 ]
  - # (1, 55)
    - [     0.000777738381977,     0.000000002817972,    -0.000000001919547 ]
    - [     0.000000002817972,     0.000028384000945,    -0.000014203573461 ]
    - [    -0.000000001919547,    -0.000014203573461,     0.000018402081285 ]
  - # (1, 56)
    - [    -0.000137729134339,     0.000840337507729,     0.001252243209620 ]
    - [     0.000840337507729,     0.000832609038256,    -0.000722982954165 ]
    - [     0.001252243209620,    -0.000722982954165,     0.000259026096867 ]
  - # (1, 57)
    - [    -0.001082118989364,     0.002476276907111,     0.001772665296536 ]
    - [     0.002476276907111,    -0.009236490975267,    -0.004642996228483 ]
    - [     0.001772665296536,    -0.004642996228483,    -0.001951515332138 ]
  - # (1, 58)
    - [    -0.001082120414807,    -0.002476276954144,    -0.001772665335551 ]
    - [    -0.002476276954144,    -0.009236485574350,    -0.004642993786180 ]
    - [    -0.001772665335551,    -0.004642993786180,    -0.001951504267163 ]
  - # (1, 59)
    - [     0.000215721637944,     0.000324478603252,    -0.000012299656654 ]
    - [     0.000324478603252,     0.000590397255811,     0.000007101210080 ]
    - [    -0.000012299656654,     0.000007101210080,     0.000018391102423 ]
  - # (1, 60)