8    
2    

1    
 -0.0023570226039552   0.0023570226039552  -0.0094280904158206
   0.0299142600   -0.0299142600    0.1438272400
   0.0009733200   -0.0009733200   -0.0085992900
   0.0004558200   -0.0004558200   -0.0001524200
   0.0009553200   -0.0009553200   -0.0086652800
  -0.0042610300    0.0042610300   -0.0624815600
  -0.0012966400    0.0012966400   -0.0003637700
  -0.0002445300    0.0002445300   -0.0003798800
  -0.0264965200    0.0264965200   -0.0631850300

1    
  0.0023570226039552  -0.0023570226039552   0.0094280904158206
  -0.0284536000    0.0284536000   -0.1434620000
  -0.0009418800    0.0009418800    0.0086712700
  -0.0004599100    0.0004599100    0.0001531700
  -0.0009600000    0.0009600000    0.0086050400
   0.0040363100   -0.0040363100    0.0629912200
   0.0013009900   -0.0013009900    0.0003812800
   0.0002465500   -0.0002465500    0.0003649600
   0.0252315400   -0.0252315400    0.0622950600
