<?xml version="1.0" encoding="ISO-8859-1"?>
<modeling>
 <generator>
  <i name="program" type="string">vasp </i>
  <i name="version" type="string">6.4.3  </i>
  <i name="subversion" type="string">19Mar24 (build Jun 20 2024 15:56:09) complex                          parallel </i>
  <i name="platform" type="string">LinuxNV_CrayMPICH </i>
  <i name="date" type="string">2025 01 07 </i>
  <i name="time" type="string">18:36:39 </i>
 </generator>
 <incar>
  <i type="string" name="PREC">Accurate</i>
  <i type="int" name="IBRION">    -1</i>
  <i name="EDIFF">      0.00000001</i>
  <i type="int" name="NSW">     0</i>
  <i name="ENCUT">    500.00000000</i>
  <i type="logical" name="LREAL"> F  </i>
  <i type="int" name="ISMEAR">     0</i>
  <i name="SIGMA">      0.01000000</i>
  <i type="logical" name="LWAVE"> F  </i>
  <i type="logical" name="LCHARG"> F  </i>
 </incar>
 <primitive_cell>
  <structure name="primitive_cell" >
   <crystal>
    <varray name="basis" >
     <v>      16.57479336       0.00000000       0.00000000 </v>
     <v>       0.00000000       4.14369834       0.00000000 </v>
     <v>       0.00000000       0.00000000       4.14369834 </v>
    </varray>
    <i name="volume">    284.59311253 </i>
    <varray name="rec_basis" >
     <v>       0.06033258      -0.00000000       0.00000000 </v>
     <v>       0.00000000       0.24133031       0.00000000 </v>
     <v>      -0.00000000      -0.00000000       0.24133031 </v>
    </varray>
   </crystal>
   <varray name="positions" >
    <v>       0.00000000       0.00000000       0.00000000 </v>
    <v>       0.25000000       0.00000000       1.00000000 </v>
    <v>       0.50000000       0.00000000       1.00000000 </v>
    <v>       0.75000000       0.00000000       1.00000000 </v>
    <v>       0.12558531       0.50058531       0.50000000 </v>
    <v>       0.37500000       0.50000000       0.50000000 </v>
    <v>       0.62500000       0.50000000       0.50000000 </v>
    <v>       0.87500000       0.50000000       0.50000000 </v>
   </varray>
  </structure>
  <varray name="primitive_index" >
   <v type="int" >        1 </v>
   <v type="int" >        2 </v>
   <v type="int" >        3 </v>
   <v type="int" >        4 </v>
   <v type="int" >        5 </v>
   <v type="int" >        6 </v>
   <v type="int" >        7 </v>
   <v type="int" >        8 </v>
  </varray>
 </primitive_cell>
 <kpoints>
  <generation param="Gamma">
   <v type="int" name="divisions">       3       10       10 </v>
   <v name="usershift">      0.00000000       0.00000000       0.00000000 </v>
   <v name="genvec1">      0.33333333       0.00000000       0.00000000 </v>
   <v name="genvec2">      0.00000000       0.10000000       0.00000000 </v>
   <v name="genvec3">     -0.00000000      -0.00000000       0.10000000 </v>
   <v name="shift">      0.00000000       0.00000000       0.00000000 </v>
  </generation>
  <varray name="kpointlist" >
   <v>       0.00000000       0.00000000       0.00000000 </v>
   <v>       0.33333333       0.00000000       0.00000000 </v>
   <v>       0.00000000       0.10000000       0.00000000 </v>
   <v>       0.00000000       0.00000000       0.10000000 </v>
   <v>       0.33333333       0.10000000       0.00000000 </v>
   <v>       0.33333333       0.00000000       0.10000000 </v>
   <v>       0.33333333      -0.10000000       0.00000000 </v>
   <v>       0.00000000       0.20000000       0.00000000 </v>
   <v>       0.00000000       0.00000000       0.20000000 </v>
   <v>       0.33333333       0.20000000       0.00000000 </v>
   <v>       0.33333333       0.00000000       0.20000000 </v>
   <v>       0.33333333      -0.20000000       0.00000000 </v>
   <v>       0.00000000       0.30000000       0.00000000 </v>
   <v>       0.00000000       0.00000000       0.30000000 </v>
   <v>       0.33333333       0.30000000       0.00000000 </v>
   <v>       0.33333333       0.00000000       0.30000000 </v>
   <v>       0.33333333      -0.30000000       0.00000000 </v>
   <v>       0.00000000       0.40000000       0.00000000 </v>
   <v>       0.00000000       0.00000000       0.40000000 </v>
   <v>       0.33333333       0.40000000       0.00000000 </v>
   <v>       0.33333333       0.00000000       0.40000000 </v>
   <v>       0.33333333      -0.40000000       0.00000000 </v>
   <v>       0.00000000       0.50000000       0.00000000 </v>
   <v>       0.00000000       0.00000000       0.50000000 </v>
   <v>       0.33333333       0.50000000       0.00000000 </v>
   <v>       0.33333333       0.00000000       0.50000000 </v>
   <v>       0.00000000       0.10000000       0.10000000 </v>
   <v>       0.33333333       0.10000000       0.10000000 </v>
   <v>       0.33333333      -0.10000000       0.10000000 </v>
   <v>       0.00000000       0.20000000       0.10000000 </v>
   <v>       0.00000000      -0.10000000       0.20000000 </v>
   <v>       0.33333333       0.20000000       0.10000000 </v>
   <v>       0.33333333      -0.10000000       0.20000000 </v>
   <v>       0.33333333      -0.20000000      -0.10000000 </v>
   <v>       0.33333333       0.10000000      -0.20000000 </v>
   <v>       0.00000000       0.30000000       0.10000000 </v>
   <v>       0.00000000      -0.10000000       0.30000000 </v>
   <v>       0.33333333       0.30000000       0.10000000 </v>
   <v>       0.33333333      -0.10000000       0.30000000 </v>
   <v>       0.33333333      -0.30000000      -0.10000000 </v>
   <v>       0.33333333       0.10000000      -0.30000000 </v>
   <v>       0.00000000       0.40000000       0.10000000 </v>
   <v>       0.00000000      -0.10000000       0.40000000 </v>
   <v>       0.33333333       0.40000000       0.10000000 </v>
   <v>       0.33333333      -0.10000000       0.40000000 </v>
   <v>       0.33333333      -0.40000000      -0.10000000 </v>
   <v>       0.33333333       0.10000000      -0.40000000 </v>
   <v>       0.00000000       0.50000000       0.10000000 </v>
   <v>       0.00000000      -0.10000000       0.50000000 </v>
   <v>       0.33333333       0.50000000       0.10000000 </v>
   <v>       0.33333333      -0.10000000       0.50000000 </v>
   <v>       0.33333333       0.10000000       0.50000000 </v>
   <v>       0.00000000       0.20000000       0.20000000 </v>
   <v>       0.33333333       0.20000000       0.20000000 </v>
   <v>       0.33333333      -0.20000000       0.20000000 </v>
   <v>       0.00000000       0.30000000       0.20000000 </v>
   <v>       0.00000000      -0.20000000       0.30000000 </v>
   <v>       0.33333333       0.30000000       0.20000000 </v>
   <v>       0.33333333      -0.20000000       0.30000000 </v>
   <v>       0.33333333      -0.30000000      -0.20000000 </v>
   <v>       0.33333333       0.20000000      -0.30000000 </v>
   <v>       0.00000000       0.40000000       0.20000000 </v>
   <v>       0.00000000      -0.20000000       0.40000000 </v>
   <v>       0.33333333       0.40000000       0.20000000 </v>
   <v>       0.33333333      -0.20000000       0.40000000 </v>
   <v>       0.33333333      -0.40000000      -0.20000000 </v>
   <v>       0.33333333       0.20000000      -0.40000000 </v>
   <v>       0.00000000       0.50000000       0.20000000 </v>
   <v>       0.00000000      -0.20000000       0.50000000 </v>
   <v>       0.33333333       0.50000000       0.20000000 </v>
   <v>       0.33333333      -0.20000000       0.50000000 </v>
   <v>       0.33333333       0.20000000       0.50000000 </v>
   <v>       0.00000000       0.30000000       0.30000000 </v>
   <v>       0.33333333       0.30000000       0.30000000 </v>
   <v>       0.33333333      -0.30000000       0.30000000 </v>
   <v>       0.00000000       0.40000000       0.30000000 </v>
   <v>       0.00000000      -0.30000000       0.40000000 </v>
   <v>       0.33333333       0.40000000       0.30000000 </v>
   <v>       0.33333333      -0.30000000       0.40000000 </v>
   <v>       0.33333333      -0.40000000      -0.30000000 </v>
   <v>       0.33333333       0.30000000      -0.40000000 </v>
   <v>       0.00000000       0.50000000       0.30000000 </v>
   <v>       0.00000000      -0.30000000       0.50000000 </v>
   <v>       0.33333333       0.50000000       0.30000000 </v>
   <v>       0.33333333      -0.30000000       0.50000000 </v>
   <v>       0.33333333       0.30000000       0.50000000 </v>
   <v>       0.00000000       0.40000000       0.40000000 </v>
   <v>       0.33333333       0.40000000       0.40000000 </v>
   <v>       0.33333333      -0.40000000       0.40000000 </v>
   <v>       0.00000000       0.50000000       0.40000000 </v>
   <v>       0.00000000      -0.40000000       0.50000000 </v>
   <v>       0.33333333       0.50000000       0.40000000 </v>
   <v>       0.33333333      -0.40000000       0.50000000 </v>
   <v>       0.33333333       0.40000000       0.50000000 </v>
   <v>       0.00000000       0.50000000       0.50000000 </v>
   <v>       0.33333333       0.50000000       0.50000000 </v>
  </varray>
  <varray name="weights" >
   <v>       0.00333333 </v>
   <v>       0.00666667 </v>
   <v>       0.00666667 </v>
   <v>       0.00666667 </v>
   <v>       0.00666667 </v>
   <v>       0.01333333 </v>
   <v>       0.00666667 </v>
   <v>       0.00666667 </v>
   <v>       0.00666667 </v>
   <v>       0.00666667 </v>
   <v>       0.01333333 </v>
   <v>       0.00666667 </v>
   <v>       0.00666667 </v>
   <v>       0.00666667 </v>
   <v>       0.00666667 </v>
   <v>       0.01333333 </v>
   <v>       0.00666667 </v>
   <v>       0.00666667 </v>
   <v>       0.00666667 </v>
   <v>       0.00666667 </v>
   <v>       0.01333333 </v>
   <v>       0.00666667 </v>
   <v>       0.00333333 </v>
   <v>       0.00333333 </v>
   <v>       0.00666667 </v>
   <v>       0.00666667 </v>
   <v>       0.01333333 </v>
   <v>       0.01333333 </v>
   <v>       0.01333333 </v>
   <v>       0.01333333 </v>
   <v>       0.01333333 </v>
   <v>       0.01333333 </v>
   <v>       0.01333333 </v>
   <v>       0.01333333 </v>
   <v>       0.01333333 </v>
   <v>       0.01333333 </v>
   <v>       0.01333333 </v>
   <v>       0.01333333 </v>
   <v>       0.01333333 </v>
   <v>       0.01333333 </v>
   <v>       0.01333333 </v>
   <v>       0.01333333 </v>
   <v>       0.01333333 </v>
   <v>       0.01333333 </v>
   <v>       0.01333333 </v>
   <v>       0.01333333 </v>
   <v>       0.01333333 </v>
   <v>       0.00666667 </v>
   <v>       0.00666667 </v>
   <v>       0.01333333 </v>
   <v>       0.00666667 </v>
   <v>       0.00666667 </v>
   <v>       0.01333333 </v>
   <v>       0.01333333 </v>
   <v>       0.01333333 </v>
   <v>       0.01333333 </v>
   <v>       0.01333333 </v>
   <v>       0.01333333 </v>
   <v>       0.01333333 </v>
   <v>       0.01333333 </v>
   <v>       0.01333333 </v>
   <v>       0.01333333 </v>
   <v>       0.01333333 </v>
   <v>       0.01333333 </v>
   <v>       0.01333333 </v>
   <v>       0.01333333 </v>
   <v>       0.01333333 </v>
   <v>       0.00666667 </v>
   <v>       0.00666667 </v>
   <v>       0.01333333 </v>
   <v>       0.00666667 </v>
   <v>       0.00666667 </v>
   <v>       0.01333333 </v>
   <v>       0.01333333 </v>
   <v>       0.01333333 </v>
   <v>       0.01333333 </v>
   <v>       0.01333333 </v>
   <v>       0.01333333 </v>
   <v>       0.01333333 </v>
   <v>       0.01333333 </v>
   <v>       0.01333333 </v>
   <v>       0.00666667 </v>
   <v>       0.00666667 </v>
   <v>       0.01333333 </v>
   <v>       0.00666667 </v>
   <v>       0.00666667 </v>
   <v>       0.01333333 </v>
   <v>       0.01333333 </v>
   <v>       0.01333333 </v>
   <v>       0.00666667 </v>
   <v>       0.00666667 </v>
   <v>       0.01333333 </v>
   <v>       0.00666667 </v>
   <v>       0.00666667 </v>
   <v>       0.00333333 </v>
   <v>       0.00666667 </v>
  </varray>
 </kpoints>
 <parameters>
  <separator name="general" >
   <i type="string" name="SYSTEM">unknown system</i>
   <i type="logical" name="LCOMPAT"> F  </i>
  </separator>
  <separator name="electronic" >
   <i type="string" name="PREC">accura</i>
   <i name="ENMAX">    500.00000000</i>
   <i name="ENAUG">    407.93300000</i>
   <i name="EDIFF">      0.00000001</i>
   <i type="int" name="IALGO">    38</i>
   <i type="int" name="IWAVPR">    10</i>
   <i type="int" name="NBANDS">    40</i>
   <i type="int" name="NBANDSLOW">    -1</i>
   <i type="int" name="NBANDSHIGH">    -1</i>
   <i name="NELECT">     64.00000000</i>
   <i type="int" name="TURBO">     0</i>
   <i type="int" name="IRESTART">     0</i>
   <i type="int" name="NREBOOT">     0</i>
   <i type="int" name="NMIN">     0</i>
   <i name="EREF">      0.00000000</i>
   <separator name="electronic smearing" >
    <i type="int" name="ISMEAR">     0</i>
    <i name="SIGMA">      0.01000000</i>
    <i name="KSPACING">      0.50000000</i>
    <i type="logical" name="KGAMMA"> T  </i>
    <i type="logical" name="KBLOWUP"> T  </i>
   </separator>
   <separator name="electronic projectors" >
    <i type="logical" name="LREAL"> F  </i>
    <v name="ROPT">      0.00000000      0.00000000</v>
    <i type="int" name="LMAXPAW">  -100</i>
    <i type="int" name="LMAXMIX">     2</i>
    <i type="logical" name="NLSPLINE"> F  </i>
   </separator>
   <separator name="electronic startup" >
    <i type="int" name="ISTART">     0</i>
    <i type="int" name="ICHARG">     2</i>
    <i type="int" name="INIWAV">     1</i>
   </separator>
   <separator name="electronic spin" >
    <i type="int" name="ISPIN">     1</i>
    <i type="logical" name="LNONCOLLINEAR"> F  </i>
    <v name="MAGMOM">      1.00000000      1.00000000      1.00000000      1.00000000      1.00000000      1.00000000      1.00000000      1.00000000</v>
    <i name="NUPDOWN">     -1.00000000</i>
    <i type="logical" name="LSORBIT"> F  </i>
    <v name="SAXIS">      0.00000000      0.00000000      1.00000000</v>
    <i type="logical" name="LSPIRAL"> F  </i>
    <v name="QSPIRAL">      0.00000000      0.00000000      0.00000000</v>
    <i type="logical" name="LZEROZ"> F  </i>
   </separator>
   <separator name="electronic exchange-correlation" >
    <i type="logical" name="LASPH"> F  </i>
   </separator>
   <separator name="electronic convergence" >
    <i type="int" name="NELM">    60</i>
    <i type="int" name="NELMDL">    -5</i>
    <i type="int" name="NELMIN">     2</i>
    <i name="ENINI">    500.00000000</i>
    <separator name="electronic convergence detail" >
     <i type="logical" name="LDIAG"> T  </i>
     <i type="logical" name="LSUBROT"> F  </i>
     <i name="WEIMIN">      0.00000000</i>
     <i name="EBREAK">      0.00000000</i>
     <i name="DEPER">      0.30000000</i>
     <i type="int" name="NRMM">     4</i>
     <i name="TIME">      0.40000000</i>
    </separator>
   </separator>
   <separator name="electronic mixer" >
    <i name="AMIX">      0.40000000</i>
    <i name="BMIX">      1.00000000</i>
    <i name="AMIN">      0.10000000</i>
    <i name="AMIX_MAG">      1.60000000</i>
    <i name="BMIX_MAG">      1.00000000</i>
    <separator name="electronic mixer details" >
     <i type="int" name="IMIX">     4</i>
     <i type="logical" name="MIXFIRST"> F  </i>
     <i type="int" name="MAXMIX">   -45</i>
     <i name="WC">    100.00000000</i>
     <i type="int" name="INIMIX">     1</i>
     <i type="int" name="MIXPRE">     1</i>
     <i type="int" name="MREMOVE">     5</i>
    </separator>
   </separator>
   <separator name="electronic dipolcorrection" >
    <i type="logical" name="LDIPOL"> F  </i>
    <i type="logical" name="LMONO"> F  </i>
    <i type="int" name="IDIPOL">     0</i>
    <i name="EPSILON">      1.00000000</i>
    <v name="DIPOL">   -100.00000000   -100.00000000   -100.00000000</v>
    <i name="EFIELD">      0.00000000</i>
    <i type="logical" name="LVACPOTAV"> F  </i>
   </separator>
  </separator>
  <separator name="grids" >
   <i type="int" name="NGX">   126</i>
   <i type="int" name="NGY">    30</i>
   <i type="int" name="NGZ">    30</i>
   <i type="int" name="NGXF">   252</i>
   <i type="int" name="NGYF">    60</i>
   <i type="int" name="NGZF">    60</i>
   <i type="logical" name="ADDGRID"> F  </i>
  </separator>
  <separator name="ionic" >
   <i type="int" name="NSW">     0</i>
   <i type="int" name="IBRION">    -1</i>
   <i type="int" name="MDALGO">     0</i>
   <i type="int" name="ISIF">     2</i>
   <i name="PSTRESS">      0.00000000</i>
   <i name="EDIFFG">      0.00000010</i>
   <i type="int" name="NFREE">     0</i>
   <i name="POTIM">      0.50000000</i>
   <i name="SMASS">     -3.00000000</i>
   <i name="SCALEE">      1.00000000</i>
  </separator>
  <separator name="ionic md" >
   <i name="TEBEG">      0.00010000</i>
   <i name="TEEND">      0.00010000</i>
   <i type="int" name="NBLOCK">     1</i>
   <i type="int" name="KBLOCK">     1</i>
   <i type="int" name="NPACO">   256</i>
   <i name="APACO">     10.00000000</i>
  </separator>
  <separator name="symmetry" >
   <i type="int" name="ISYM">     2</i>
   <i name="SYMPREC">      0.00001000</i>
  </separator>
  <separator name="dos" >
   <i type="int" name="LORBIT">     0</i>
   <v name="RWIGS">     -1.00000000     -1.00000000</v>
   <i type="int" name="NEDOS">   301</i>
   <i name="EMIN">     10.00000000</i>
   <i name="EMAX">    -10.00000000</i>
   <i name="EFERMI">      0.00000000</i>
  </separator>
  <separator name="writing" >
   <i type="int" name="NWRITE">     2</i>
   <i type="logical" name="LWAVE"> F  </i>
   <i type="logical" name="LDOWNSAMPLE"> F  </i>
   <i type="logical" name="LCHARG"> F  </i>
   <i type="logical" name="LPARD"> F  </i>
   <i type="logical" name="LVTOT"> F  </i>
   <i type="logical" name="LVHAR"> F  </i>
   <i type="logical" name="LELF"> F  </i>
   <i type="logical" name="LOPTICS"> F  </i>
   <v name="STM">      0.00000000      0.00000000      0.00000000      0.00000000      0.00000000      0.00000000      0.00000000</v>
  </separator>
  <separator name="performance" >
   <i type="int" name="NPAR">     8</i>
   <i type="int" name="NSIM">     4</i>
   <i type="int" name="NBLK">    -1</i>
   <i type="logical" name="LPLANE"> T  </i>
   <i type="logical" name="LSCALAPACK"> T  </i>
   <i type="logical" name="LSCAAWARE"> F  </i>
   <i type="logical" name="LSCALU"> F  </i>
   <i type="logical" name="LASYNC"> F  </i>
   <i type="logical" name="LORBITALREAL"> F  </i>
  </separator>
  <separator name="miscellaneous" >
   <i type="int" name="IDIOT">     3</i>
   <i type="int" name="PHON_NSTRUCT">    -1</i>
   <i type="logical" name="LMUSIC"> F  </i>
   <v name="POMASS">    132.90000000     35.45300000</v>
   <v name="DARWINR">      0.00000000      0.00000000</v>
   <v name="DARWINV">      1.00000000      1.00000000</v>
   <i type="logical" name="LCORR"> T  </i>
  </separator>
  <i type="logical" name="GGA_COMPAT"> T  </i>
  <i type="logical" name="LBERRY"> F  </i>
  <i type="int" name="ICORELEVEL">     0</i>
  <i type="logical" name="LDAU"> F  </i>
  <i type="int" name="I_CONSTRAINED_M">     0</i>
  <separator name="electronic exchange-correlation" >
   <i type="string" name="GGA    ">PE</i>
   <i type="string" name="XC_C">1</i>
   <i type="int" name="VOSKOWN">     0</i>
   <i type="logical" name="LHFCALC"> F  </i>
   <i type="string" name="PRECFOCK"></i>
   <i type="logical" name="LSYMGRAD"> F  </i>
   <i type="logical" name="LHFONE"> F  </i>
   <i type="logical" name="LRHFCALC"> F  </i>
   <i type="logical" name="LTHOMAS"> F  </i>
   <i type="logical" name="LMODELHF"> F  </i>
   <i type="logical" name="LFOCKACE"> F  </i>
   <i name="ENCUT4O">     -1.00000000</i>
   <i type="int" name="EXXOEP">     0</i>
   <i type="int" name="FOURORBIT">     0</i>
   <i name="AEXX">      0.00000000</i>
   <i name="HFALPHA">      0.00000000</i>
   <i name="MCALPHA">      0.00000000</i>
   <i name="ALDAX">      1.00000000</i>
   <i name="AGGAX">      1.00000000</i>
   <i name="AMGGAX">      1.00000000</i>
   <i name="ALDAC">      1.00000000</i>
   <i name="AGGAC">      1.00000000</i>
   <i name="AMGGAC">      1.00000000</i>
   <i type="int" name="NKREDX">     1</i>
   <i type="int" name="NKREDY">     1</i>
   <i type="int" name="NKREDZ">     1</i>
   <i type="logical" name="SHIFTRED"> F  </i>
   <i type="logical" name="ODDONLY"> F  </i>
   <i type="logical" name="EVENONLY"> F  </i>
   <i type="int" name="LMAXFOCK">     0</i>
   <i type="int" name="NMAXFOCKAE">     0</i>
   <i type="logical" name="LFOCKAEDFT"> F  </i>
   <i name="HFSCREEN">      0.00000000</i>
   <i name="HFSCREENC">      0.00000000</i>
   <i type="int" name="NBANDSGWLOW">     0</i>
  </separator>
  <separator name="vdW DFT" >
   <i type="logical" name="LUSE_VDW"> F  </i>
   <i type="int" name="IVDW_NL">    -1</i>
   <i type="logical" name="LSPIN_VDW"> F  </i>
   <i name="ZAB_VDW">     -0.84910000</i>
   <i name="GAMMA_VDW">      1.39626340</i>
   <i name="ALPHA_VDW">      0.00000000</i>
   <i name="PARAM1">      0.12340000</i>
   <i name="PARAM2">      1.00000000</i>
   <i name="BPARAM">      6.30000000</i>
   <i name="CPARAM">      0.00930000</i>
  </separator>
  <separator name="model GW" >
   <i type="int" name="MODEL_GW">     0</i>
   <i name="MODEL_EPS0">     21.34448344</i>
   <i name="MODEL_ALPHA">      1.00000000</i>
  </separator>
  <separator name="linear response parameters" >
   <i type="logical" name="LEPSILON"> F  </i>
   <i type="logical" name="LRPA"> F  </i>
   <i type="logical" name="LNABLA"> F  </i>
   <i type="logical" name="LVEL"> F  </i>
   <i name="CSHIFT">      0.10000000</i>
   <i name="OMEGAMAX">     -1.00000000</i>
   <i name="DEG_THRESHOLD">      0.00200000</i>
   <i name="RTIME">     -0.10000000</i>
   <i name="WPLASMAI">      0.00000000</i>
   <v name="DFIELD">      0.00000000      0.00000000      0.00000000</v>
   <v name="WPLASMA">      0.00000000      0.00000000      0.00000000      0.00000000      0.00000000      0.00000000      0.00000000      0.00000000      0.00000000</v>
  </separator>
  <separator name="orbital magnetization" >
   <i type="logical" name="NUCIND"> F  </i>
   <v name="MAGPOS">      0.00000000      0.00000000      0.00000000</v>
   <i type="logical" name="LNICSALL"> T  </i>
   <i type="logical" name="ORBITALMAG"> F  </i>
   <i type="logical" name="LMAGBLOCH"> F  </i>
   <i type="logical" name="LCHIMAG"> F  </i>
   <i type="logical" name="LGAUGE"> T  </i>
   <i type="int" name="MAGATOM">     0</i>
   <v name="MAGDIPOL">      0.00000000      0.00000000      0.00000000</v>
   <v name="AVECCONST">      0.00000000      0.00000000      0.00000000</v>
  </separator>
  <separator name="response functions" >
   <i type="logical" name="LALL_IN_ONE"> F  </i>
   <i type="int" name="IALL_IN_ONE">    -1</i>
   <i type="int" name="NBANDS_WAVE">    -1</i>
   <i type="logical" name="LFINITE_TEMPERATURE"> F  </i>
   <i type="logical" name="LADDER"> F  </i>
   <i type="logical" name="LRPAFORCE"> F  </i>
   <i type="logical" name="LFXC"> F  </i>
   <i type="logical" name="LHARTREE"> T  </i>
   <i type="int" name="IBSE">     0</i>
   <v type="int" name="KPOINT">    -1     0     0     0</v>
   <i type="logical" name="LTCTC"> F  </i>
   <i type="logical" name="LTCTE"> F  </i>
   <i type="logical" name="LTETE"> F  </i>
   <i type="logical" name="LTRIPLET"> F  </i>
   <i type="logical" name="LFXCEPS"> F  </i>
   <i type="logical" name="LFXHEG"> F  </i>
   <i type="int" name="NATURALO">     2</i>
   <i type="logical" name="LHOLEGF"> F  </i>
   <i type="logical" name="L2ORDER"> F  </i>
   <i type="logical" name="LDMP1"> F  </i>
   <i type="logical" name="LMP2LT"> F  </i>
   <i type="logical" name="LSMP2LT"> F  </i>
   <i type="logical" name="LGWLF"> F  </i>
   <i name="ENCUTGW">     -1.60000002</i>
   <i name="ENCUTGWSOFT">     -1.60000002</i>
   <i name="ENCUTLF">     -1.00000000</i>
   <i type="logical" name="ESF_SPLINES"> F  </i>
   <i name="ESF_CONV">      0.01000000</i>
   <i type="int" name="ESF_NINTER">    15</i>
   <i type="int" name="LMAXMP2">    -1</i>
   <i name="SCISSOR">      0.00000000</i>
   <i type="int" name="NOMEGA">     0</i>
   <i type="int" name="NOMEGAR">     0</i>
   <i type="int" name="NBANDSGW">    -1</i>
   <i type="int" name="NBANDSO">    -1</i>
   <i type="int" name="NBANDSV">    -1</i>
   <i type="int" name="NELMGW">     1</i>
   <i type="int" name="NELMHF">     1</i>
   <i type="int" name="DIM">     3</i>
   <i type="int" name="IESPILON">     4</i>
   <i type="int" name="ANTIRES">     0</i>
   <i name="OMEGAMAX">    -30.00000000</i>
   <i name="OMEGAMIN">    -30.00000000</i>
   <i name="OMEGATL">   -200.00000000</i>
   <i type="int" name="OMEGAGRID">     0</i>
   <i name="CSHIFT">     -0.10000000</i>
   <i type="logical" name="LSELFENERGY"> F  </i>
   <i type="logical" name="LSPECTRAL"> F  </i>
   <i type="logical" name="LSPECTRALGW"> F  </i>
   <i type="logical" name="LSINGLES"> F  </i>
   <i type="logical" name="LFERMIGW"> F  </i>
   <i type="logical" name="ODDONLYGW"> F  </i>
   <i type="logical" name="EVENONLYGW"> F  </i>
   <i type="int" name="NKREDLFX">     1</i>
   <i type="int" name="NKREDLFY">     1</i>
   <i type="int" name="NKREDLFZ">     1</i>
   <i type="int" name="MAXMEM">  2800</i>
   <i type="int" name="TELESCOPE">     0</i>
   <i type="int" name="NTAUPAR">    -1</i>
   <i type="int" name="NOMEGAPAR">    -1</i>
   <i name="DAMP_NEWTON">      0.80000001</i>
   <i name="LAMBDA">      1.00000000</i>
  </separator>
  <separator name="External order field" >
   <i name="OFIELD_KAPPA">      0.00000000</i>
   <v name="OFIELD_K">      0.00000000      0.00000000      0.00000000</v>
   <i name="OFIELD_Q6_NEAR">      0.00000000</i>
   <i name="OFIELD_Q6_FAR">      0.00000000</i>
   <i name="OFIELD_A">      0.00000000</i>
  </separator>
  <separator name="optional k-points parameters" >
   <i type="int" name="KPOINTS_OPT_MODE">     1</i>
   <i type="logical" name="LKPOINTS_OPT"> F  </i>
  </separator>
 </parameters>
 <atominfo>
  <atoms>       8 </atoms>
  <types>       2 </types>
  <array name="atoms" >
   <dimension dim="1">ion</dimension>
   <field type="string">element</field>
   <field type="int">atomtype</field>
   <set>
    <rc><c>Cs</c><c>   1</c></rc>
    <rc><c>Cs</c><c>   1</c></rc>
    <rc><c>Cs</c><c>   1</c></rc>
    <rc><c>Cs</c><c>   1</c></rc>
    <rc><c>Cl</c><c>   2</c></rc>
    <rc><c>Cl</c><c>   2</c></rc>
    <rc><c>Cl</c><c>   2</c></rc>
    <rc><c>Cl</c><c>   2</c></rc>
   </set>
  </array>
  <array name="atomtypes" >
   <dimension dim="1">type</dimension>
   <field type="int">atomspertype</field>
   <field type="string">element</field>
   <field>mass</field>
   <field>valence</field>
   <field type="string">pseudopotential</field>
   <set>
    <rc><c>   4</c><c>Cs</c><c>    132.90000000</c><c>      9.00000000</c><c>  PAW_PBE Cs_sv 25Jan2019               </c></rc>
    <rc><c>   4</c><c>Cl</c><c>     35.45300000</c><c>      7.00000000</c><c>  PAW_PBE Cl 06Sep2000                  </c></rc>
   </set>
  </array>
 </atominfo>
 <structure name="initialpos" >
  <crystal>
   <varray name="basis" >
    <v>      16.57479336       0.00000000       0.00000000 </v>
    <v>       0.00000000       4.14369834       0.00000000 </v>
    <v>       0.00000000       0.00000000       4.14369834 </v>
   </varray>
   <i name="volume">    284.59311253 </i>
   <varray name="rec_basis" >
    <v>       0.06033258      -0.00000000       0.00000000 </v>
    <v>       0.00000000       0.24133031       0.00000000 </v>
    <v>      -0.00000000      -0.00000000       0.24133031 </v>
   </varray>
  </crystal>
  <varray name="positions" >
   <v>       0.00000000       0.00000000       0.00000000 </v>
   <v>       0.25000000       0.00000000       0.00000000 </v>
   <v>       0.50000000       0.00000000       0.00000000 </v>
   <v>       0.75000000       0.00000000       0.00000000 </v>
   <v>       0.12558531       0.50058531       0.50000000 </v>
   <v>       0.37500000       0.50000000       0.50000000 </v>
   <v>       0.62500000       0.50000000       0.50000000 </v>
   <v>       0.87500000       0.50000000       0.50000000 </v>
  </varray>
 </structure>
 <calculation>
  <scstep>
   <time name="dav">    1.14    1.14</time>
   <time name="total">    1.16    1.16</time>
   <energy>
    <i name="alphaZ">    214.16676563 </i>
    <i name="ewald">  -3265.84512623 </i>
    <i name="hartreedc">   -531.76043706 </i>
    <i name="XCdc">   -120.86789479 </i>
    <i name="pawpsdc">   3246.12869203 </i>
    <i name="pawaedc">  -2972.40719683 </i>
    <i name="eentropy">     -0.00032822 </i>
    <i name="bandstr">     38.78518115 </i>
    <i name="atom">   3861.61514281 </i>
    <i name="e_fr_energy">    469.81479849 </i>
    <i name="e_wo_entrp">    469.81512671 </i>
    <i name="e_0_energy">    469.81496260 </i>
   </energy>
  </scstep>
  <scstep>
   <time name="dav">    1.41    1.41</time>
   <time name="total">    1.41    1.41</time>
   <energy>
    <i name="e_fr_energy">     16.31157906 </i>
    <i name="e_wo_entrp">     16.31157906 </i>
    <i name="e_0_energy">     16.31157906 </i>
   </energy>
  </scstep>
  <scstep>
   <time name="dav">    1.28    1.28</time>
   <time name="total">    1.28    1.29</time>
   <energy>
    <i name="e_fr_energy">    -27.12336247 </i>
    <i name="e_wo_entrp">    -27.12336247 </i>
    <i name="e_0_energy">    -27.12336247 </i>
   </energy>
  </scstep>
  <scstep>
   <time name="dav">    1.27    1.27</time>
   <time name="total">    1.27    1.27</time>
   <energy>
    <i name="e_fr_energy">    -27.79873214 </i>
    <i name="e_wo_entrp">    -27.79873214 </i>
    <i name="e_0_energy">    -27.79873214 </i>
   </energy>
  </scstep>
  <scstep>
   <time name="dav">    1.23    1.23</time>
   <time name="total">    1.31    1.31</time>
   <energy>
    <i name="e_fr_energy">    -27.81209188 </i>
    <i name="e_wo_entrp">    -27.81209188 </i>
    <i name="e_0_energy">    -27.81209188 </i>
   </energy>
  </scstep>
  <scstep>
   <time name="dav">    1.24    1.24</time>
   <time name="total">    1.34    1.34</time>
   <energy>
    <i name="e_fr_energy">    -26.29995759 </i>
    <i name="e_wo_entrp">    -26.29995759 </i>
    <i name="e_0_energy">    -26.29995759 </i>
   </energy>
  </scstep>
  <scstep>
   <time name="dav">    1.38    1.38</time>
   <time name="total">    1.47    1.48</time>
   <energy>
    <i name="e_fr_energy">    -26.14212404 </i>
    <i name="e_wo_entrp">    -26.14212404 </i>
    <i name="e_0_energy">    -26.14212404 </i>
   </energy>
  </scstep>
  <scstep>
   <time name="dav">    1.24    1.24</time>
   <time name="total">    1.33    1.33</time>
   <energy>
    <i name="e_fr_energy">    -26.13678579 </i>
    <i name="e_wo_entrp">    -26.13678579 </i>
    <i name="e_0_energy">    -26.13678579 </i>
   </energy>
  </scstep>
  <scstep>
   <time name="dav">    1.34    1.34</time>
   <time name="total">    1.43    1.43</time>
   <energy>
    <i name="e_fr_energy">    -26.13069697 </i>
    <i name="e_wo_entrp">    -26.13069697 </i>
    <i name="e_0_energy">    -26.13069697 </i>
   </energy>
  </scstep>
  <scstep>
   <time name="dav">    1.23    1.23</time>
   <time name="total">    1.33    1.33</time>
   <energy>
    <i name="e_fr_energy">    -26.13207664 </i>
    <i name="e_wo_entrp">    -26.13207664 </i>
    <i name="e_0_energy">    -26.13207664 </i>
   </energy>
  </scstep>
  <scstep>
   <time name="dav">    1.26    1.26</time>
   <time name="total">    1.36    1.36</time>
   <energy>
    <i name="e_fr_energy">    -26.13219405 </i>
    <i name="e_wo_entrp">    -26.13219405 </i>
    <i name="e_0_energy">    -26.13219405 </i>
   </energy>
  </scstep>
  <scstep>
   <time name="dav">    1.26    1.26</time>
   <time name="total">    1.35    1.35</time>
   <energy>
    <i name="e_fr_energy">    -26.13221078 </i>
    <i name="e_wo_entrp">    -26.13221078 </i>
    <i name="e_0_energy">    -26.13221078 </i>
   </energy>
  </scstep>
  <scstep>
   <time name="dav">    1.25    1.25</time>
   <time name="total">    1.35    1.35</time>
   <energy>
    <i name="e_fr_energy">    -26.13220609 </i>
    <i name="e_wo_entrp">    -26.13220609 </i>
    <i name="e_0_energy">    -26.13220609 </i>
   </energy>
  </scstep>
  <scstep>
   <time name="dav">    1.27    1.27</time>
   <time name="total">    1.37    1.37</time>
   <energy>
    <i name="e_fr_energy">    -26.13220531 </i>
    <i name="e_wo_entrp">    -26.13220531 </i>
    <i name="e_0_energy">    -26.13220531 </i>
   </energy>
  </scstep>
  <scstep>
   <time name="dav">    1.27    1.27</time>
   <time name="total">    1.37    1.37</time>
   <energy>
    <i name="e_fr_energy">    -26.13220544 </i>
    <i name="e_wo_entrp">    -26.13220544 </i>
    <i name="e_0_energy">    -26.13220544 </i>
   </energy>
  </scstep>
  <scstep>
   <time name="dav">    1.20    1.20</time>
   <time name="total">    1.30    1.30</time>
   <energy>
    <i name="e_fr_energy">    -26.13220536 </i>
    <i name="e_wo_entrp">    -26.13220536 </i>
    <i name="e_0_energy">    -26.13220536 </i>
   </energy>
  </scstep>
  <scstep>
   <time name="dav">    0.98    0.98</time>
   <time name="total">    1.08    1.08</time>
   <energy>
    <i name="e_fr_energy">    -26.13220539 </i>
    <i name="e_wo_entrp">    -26.13220539 </i>
    <i name="e_0_energy">    -26.13220539 </i>
   </energy>
  </scstep>
  <scstep>
   <time name="dav">    0.94    0.94</time>
   <time name="total">    1.03    1.03</time>
   <energy>
    <i name="e_fr_energy">    -26.13220536 </i>
    <i name="e_wo_entrp">    -26.13220536 </i>
    <i name="e_0_energy">    -26.13220536 </i>
   </energy>
  </scstep>
  <scstep>
   <time name="dav">    0.85    0.85</time>
   <time name="total">    0.87    0.87</time>
   <energy>
    <i name="alphaZ">    214.16676563 </i>
    <i name="ewald">  -3265.84512623 </i>
    <i name="hartreedc">   -554.75842388 </i>
    <i name="XCdc">   -118.49244637 </i>
    <i name="pawpsdc">   3633.67752591 </i>
    <i name="pawaedc">  -3361.17442148 </i>
    <i name="eentropy">     -0.00000000 </i>
    <i name="bandstr">   -435.32122175 </i>
    <i name="atom">   3861.61514281 </i>
    <i name="e_fr_energy">    -26.13220536 </i>
    <i name="e_wo_entrp">    -26.13220536 </i>
    <i name="e_0_energy">    -26.13220536 </i>
   </energy>
  </scstep>
  <structure>
   <crystal>
    <varray name="basis" >
     <v>      16.57479336       0.00000000       0.00000000 </v>
     <v>       0.00000000       4.14369834       0.00000000 </v>
     <v>       0.00000000       0.00000000       4.14369834 </v>
    </varray>
    <i name="volume">    284.59311253 </i>
    <varray name="rec_basis" >
     <v>       0.06033258      -0.00000000       0.00000000 </v>
     <v>       0.00000000       0.24133031       0.00000000 </v>
     <v>      -0.00000000      -0.00000000       0.24133031 </v>
    </varray>
   </crystal>
   <varray name="positions" >
    <v>       0.00000000       0.00000000       0.00000000 </v>
    <v>       0.25000000       0.00000000       0.00000000 </v>
    <v>       0.50000000       0.00000000       0.00000000 </v>
    <v>       0.75000000       0.00000000       0.00000000 </v>
    <v>       0.12558531       0.50058531       0.50000000 </v>
    <v>       0.37500000       0.50000000       0.50000000 </v>
    <v>       0.62500000       0.50000000       0.50000000 </v>
    <v>       0.87500000       0.50000000       0.50000000 </v>
   </varray>
  </structure>
  <varray name="forces" >
   <v>       0.00753940       0.00092066       0.00000000 </v>
   <v>       0.00765595       0.00098253       0.00000000 </v>
   <v>      -0.00377130       0.00000053      -0.00000000 </v>
   <v>      -0.00377168       0.00000058      -0.00000000 </v>
   <v>      -0.02085807      -0.00203884      -0.00000000 </v>
   <v>       0.00468066       0.00006881       0.00000000 </v>
   <v>       0.00386329      -0.00000171       0.00000000 </v>
   <v>       0.00466175       0.00006743       0.00000000 </v>
  </varray>
  <varray name="stress" >
   <v>       7.41428018       0.00065538       0.00000000 </v>
   <v>       0.00065541       7.40509306       0.00000000 </v>
   <v>       0.00000000       0.00000000       7.40511006 </v>
  </varray>
  <energy>
   <i name="e_fr_energy">    -26.13220536 </i>
   <i name="e_wo_entrp">    -26.13220536 </i>
   <i name="e_0_energy">    -26.13220536 </i>
  </energy>
  <time name="totalsc">   25.65   25.67</time>
  <eigenvalues>
   <array>
    <dimension dim="1">band</dimension>
    <dimension dim="2">kpoint</dimension>
    <dimension dim="3">spin</dimension>
    <field>eigene</field>
    <field>occ</field>
    <set>
     <set comment="spin 1">
      <set comment="kpoint 1">
       <r>  -19.7995    1.0000 </r>
       <r>  -19.7632    1.0000 </r>
       <r>  -19.7531    1.0000 </r>
       <r>  -19.7161    1.0000 </r>
       <r>  -12.5959    1.0000 </r>
       <r>  -12.5714    1.0000 </r>
       <r>  -12.5709    1.0000 </r>
       <r>  -12.5492    1.0000 </r>
       <r>   -6.8091    1.0000 </r>
       <r>   -6.5741    1.0000 </r>
       <r>   -6.5649    1.0000 </r>
       <r>   -6.2954    1.0000 </r>
       <r>   -6.2954    1.0000 </r>
       <r>   -6.2931    1.0000 </r>
       <r>   -6.2327    1.0000 </r>
       <r>   -6.2327    1.0000 </r>
       <r>   -6.2232    1.0000 </r>
       <r>   -6.2232    1.0000 </r>
       <r>   -6.1579    1.0000 </r>
       <r>   -6.1579    1.0000 </r>
       <r>   -1.5318    1.0000 </r>
       <r>   -1.0287    1.0000 </r>
       <r>   -1.0246    1.0000 </r>
       <r>   -0.6190    1.0000 </r>
       <r>   -0.6190    1.0000 </r>
       <r>   -0.5044    1.0000 </r>
       <r>   -0.5044    1.0000 </r>
       <r>   -0.5034    1.0000 </r>
       <r>   -0.5034    1.0000 </r>
       <r>   -0.3950    1.0000 </r>
       <r>   -0.3944    1.0000 </r>
       <r>   -0.3944    1.0000 </r>
       <r>    4.7977    0.0000 </r>
       <r>    5.0129    0.0000 </r>
       <r>    5.0130    0.0000 </r>
       <r>    5.4044    0.0000 </r>
       <r>    5.4092    0.0000 </r>
       <r>    5.9453    0.0000 </r>
       <r>    5.9624    0.0000 </r>
       <r>    6.0112    0.0000 </r>
      </set>
      <set comment="kpoint 2">
       <r>  -19.7960    1.0000 </r>
       <r>  -19.7757    1.0000 </r>
       <r>  -19.7403    1.0000 </r>
       <r>  -19.7198    1.0000 </r>
       <r>  -12.5941    1.0000 </r>
       <r>  -12.5795    1.0000 </r>
       <r>  -12.5637    1.0000 </r>
       <r>  -12.5502    1.0000 </r>
       <r>   -6.7793    1.0000 </r>
       <r>   -6.6928    1.0000 </r>
       <r>   -6.4370    1.0000 </r>
       <r>   -6.3323    1.0000 </r>
       <r>   -6.2879    1.0000 </r>
       <r>   -6.2879    1.0000 </r>
       <r>   -6.2599    1.0000 </r>
       <r>   -6.2599    1.0000 </r>
       <r>   -6.1953    1.0000 </r>
       <r>   -6.1953    1.0000 </r>
       <r>   -6.1662    1.0000 </r>
       <r>   -6.1662    1.0000 </r>
       <r>   -1.4691    1.0000 </r>
       <r>   -1.2903    1.0000 </r>
       <r>   -0.7328    1.0000 </r>
       <r>   -0.6037    1.0000 </r>
       <r>   -0.6037    1.0000 </r>
       <r>   -0.5598    1.0000 </r>
       <r>   -0.5598    1.0000 </r>
       <r>   -0.4906    1.0000 </r>
       <r>   -0.4495    1.0000 </r>
       <r>   -0.4495    1.0000 </r>
       <r>   -0.4081    1.0000 </r>
       <r>   -0.4081    1.0000 </r>
       <r>    4.9651    0.0000 </r>
       <r>    5.0590    0.0000 </r>
       <r>    5.1778    0.0000 </r>
       <r>    5.1950    0.0000 </r>
       <r>    5.3977    0.0000 </r>
       <r>    5.6651    0.0000 </r>
       <r>    5.6658    0.0000 </r>
       <r>    5.9059    0.0000 </r>
      </set>
      <set comment="kpoint 3">
       <r>  -19.7923    1.0000 </r>
       <r>  -19.7565    1.0000 </r>
       <r>  -19.7463    1.0000 </r>
       <r>  -19.7098    1.0000 </r>
       <r>  -12.5858    1.0000 </r>
       <r>  -12.5676    1.0000 </r>
       <r>  -12.5669    1.0000 </r>
       <r>  -12.5508    1.0000 </r>
       <r>   -6.8294    1.0000 </r>
       <r>   -6.5883    1.0000 </r>
       <r>   -6.5799    1.0000 </r>
       <r>   -6.3516    1.0000 </r>
       <r>   -6.2976    1.0000 </r>
       <r>   -6.2884    1.0000 </r>
       <r>   -6.2832    1.0000 </r>
       <r>   -6.2806    1.0000 </r>
       <r>   -6.2536    1.0000 </r>
       <r>   -6.2225    1.0000 </r>
       <r>   -6.2130    1.0000 </r>
       <r>   -6.1500    1.0000 </r>
       <r>   -1.4530    1.0000 </r>
       <r>   -1.0287    1.0000 </r>
       <r>   -1.0250    1.0000 </r>
       <r>   -0.6449    1.0000 </r>
       <r>   -0.6032    1.0000 </r>
       <r>   -0.5435    1.0000 </r>
       <r>   -0.5389    1.0000 </r>
       <r>   -0.5251    1.0000 </r>
       <r>   -0.5062    1.0000 </r>
       <r>   -0.5054    1.0000 </r>
       <r>   -0.4152    1.0000 </r>
       <r>   -0.4146    1.0000 </r>
       <r>    5.0349    0.0000 </r>
       <r>    5.0794    0.0000 </r>
       <r>    5.2499    0.0000 </r>
       <r>    5.5568    0.0000 </r>
       <r>    5.5624    0.0000 </r>
       <r>    6.0434    0.0000 </r>
       <r>    6.0586    0.0000 </r>
       <r>    6.1100    0.0000 </r>
      </set>
      <set comment="kpoint 4">
       <r>  -19.7923    1.0000 </r>
       <r>  -19.7565    1.0000 </r>
       <r>  -19.7463    1.0000 </r>
       <r>  -19.7098    1.0000 </r>
       <r>  -12.5858    1.0000 </r>
       <r>  -12.5676    1.0000 </r>
       <r>  -12.5669    1.0000 </r>
       <r>  -12.5508    1.0000 </r>
       <r>   -6.8294    1.0000 </r>
       <r>   -6.5883    1.0000 </r>
       <r>   -6.5799    1.0000 </r>
       <r>   -6.3516    1.0000 </r>
       <r>   -6.2976    1.0000 </r>
       <r>   -6.2884    1.0000 </r>
       <r>   -6.2832    1.0000 </r>
       <r>   -6.2806    1.0000 </r>
       <r>   -6.2536    1.0000 </r>
       <r>   -6.2225    1.0000 </r>
       <r>   -6.2130    1.0000 </r>
       <r>   -6.1500    1.0000 </r>
       <r>   -1.4530    1.0000 </r>
       <r>   -1.0287    1.0000 </r>
       <r>   -1.0250    1.0000 </r>
       <r>   -0.6449    1.0000 </r>
       <r>   -0.6032    1.0000 </r>
       <r>   -0.5435    1.0000 </r>
       <r>   -0.5389    1.0000 </r>
       <r>   -0.5251    1.0000 </r>
       <r>   -0.5062    1.0000 </r>
       <r>   -0.5054    1.0000 </r>
       <r>   -0.4152    1.0000 </r>
       <r>   -0.4146    1.0000 </r>
       <r>    5.0349    0.0000 </r>
       <r>    5.0794    0.0000 </r>
       <r>    5.2499    0.0000 </r>
       <r>    5.5568    0.0000 </r>
       <r>    5.5624    0.0000 </r>
       <r>    6.0434    0.0000 </r>
       <r>    6.0586    0.0000 </r>
       <r>    6.1100    0.0000 </r>
      </set>
      <set comment="kpoint 5">
       <r>  -19.7889    1.0000 </r>
       <r>  -19.7688    1.0000 </r>
       <r>  -19.7338    1.0000 </r>
       <r>  -19.7135    1.0000 </r>
       <r>  -12.5850    1.0000 </r>
       <r>  -12.5717    1.0000 </r>
       <r>  -12.5635    1.0000 </r>
       <r>  -12.5510    1.0000 </r>
       <r>   -6.7988    1.0000 </r>
       <r>   -6.7102    1.0000 </r>
       <r>   -6.4505    1.0000 </r>
       <r>   -6.3633    1.0000 </r>
       <r>   -6.3098    1.0000 </r>
       <r>   -6.3042    1.0000 </r>
       <r>   -6.2760    1.0000 </r>
       <r>   -6.2760    1.0000 </r>
       <r>   -6.2567    1.0000 </r>
       <r>   -6.2486    1.0000 </r>
       <r>   -6.1863    1.0000 </r>
       <r>   -6.1579    1.0000 </r>
       <r>   -1.4003    1.0000 </r>
       <r>   -1.2494    1.0000 </r>
       <r>   -0.7821    1.0000 </r>
       <r>   -0.6305    1.0000 </r>
       <r>   -0.5954    1.0000 </r>
       <r>   -0.5903    1.0000 </r>
       <r>   -0.5871    1.0000 </r>
       <r>   -0.5527    1.0000 </r>
       <r>   -0.4878    1.0000 </r>
       <r>   -0.4607    1.0000 </r>
       <r>   -0.4434    1.0000 </r>
       <r>   -0.4257    1.0000 </r>
       <r>    5.1621    0.0000 </r>
       <r>    5.2126    0.0000 </r>
       <r>    5.3410    0.0000 </r>
       <r>    5.3513    0.0000 </r>
       <r>    5.5720    0.0000 </r>
       <r>    5.7771    0.0000 </r>
       <r>    5.8005    0.0000 </r>
       <r>    6.0173    0.0000 </r>
      </set>
      <set comment="kpoint 6">
       <r>  -19.7889    1.0000 </r>
       <r>  -19.7688    1.0000 </r>
       <r>  -19.7338    1.0000 </r>
       <r>  -19.7135    1.0000 </r>
       <r>  -12.5850    1.0000 </r>
       <r>  -12.5717    1.0000 </r>
       <r>  -12.5635    1.0000 </r>
       <r>  -12.5510    1.0000 </r>
       <r>   -6.7988    1.0000 </r>
       <r>   -6.7102    1.0000 </r>
       <r>   -6.4505    1.0000 </r>
       <r>   -6.3633    1.0000 </r>
       <r>   -6.3098    1.0000 </r>
       <r>   -6.3042    1.0000 </r>
       <r>   -6.2760    1.0000 </r>
       <r>   -6.2760    1.0000 </r>
       <r>   -6.2567    1.0000 </r>
       <r>   -6.2486    1.0000 </r>
       <r>   -6.1863    1.0000 </r>
       <r>   -6.1579    1.0000 </r>
       <r>   -1.4003    1.0000 </r>
       <r>   -1.2494    1.0000 </r>
       <r>   -0.7821    1.0000 </r>
       <r>   -0.6305    1.0000 </r>
       <r>   -0.5954    1.0000 </r>
       <r>   -0.5903    1.0000 </r>
       <r>   -0.5871    1.0000 </r>
       <r>   -0.5527    1.0000 </r>
       <r>   -0.4878    1.0000 </r>
       <r>   -0.4607    1.0000 </r>
       <r>   -0.4434    1.0000 </r>
       <r>   -0.4257    1.0000 </r>
       <r>    5.1621    0.0000 </r>
       <r>    5.2126    0.0000 </r>
       <r>    5.3410    0.0000 </r>
       <r>    5.3513    0.0000 </r>
       <r>    5.5720    0.0000 </r>
       <r>    5.7771    0.0000 </r>
       <r>    5.8005    0.0000 </r>
       <r>    6.0173    0.0000 </r>
      </set>
      <set comment="kpoint 7">
       <r>  -19.7889    1.0000 </r>
       <r>  -19.7688    1.0000 </r>
       <r>  -19.7338    1.0000 </r>
       <r>  -19.7135    1.0000 </r>
       <r>  -12.5850    1.0000 </r>
       <r>  -12.5717    1.0000 </r>
       <r>  -12.5635    1.0000 </r>
       <r>  -12.5510    1.0000 </r>
       <r>   -6.7988    1.0000 </r>
       <r>   -6.7102    1.0000 </r>
       <r>   -6.4505    1.0000 </r>
       <r>   -6.3633    1.0000 </r>
       <r>   -6.3098    1.0000 </r>
       <r>   -6.3042    1.0000 </r>
       <r>   -6.2760    1.0000 </r>
       <r>   -6.2760    1.0000 </r>
       <r>   -6.2567    1.0000 </r>
       <r>   -6.2486    1.0000 </r>
       <r>   -6.1863    1.0000 </r>
       <r>   -6.1579    1.0000 </r>
       <r>   -1.4003    1.0000 </r>
       <r>   -1.2494    1.0000 </r>
       <r>   -0.7821    1.0000 </r>
       <r>   -0.6305    1.0000 </r>
       <r>   -0.5953    1.0000 </r>
       <r>   -0.5903    1.0000 </r>
       <r>   -0.5871    1.0000 </r>
       <r>   -0.5527    1.0000 </r>
       <r>   -0.4879    1.0000 </r>
       <r>   -0.4607    1.0000 </r>
       <r>   -0.4434    1.0000 </r>
       <r>   -0.4257    1.0000 </r>
       <r>    5.1621    0.0000 </r>
       <r>    5.2126    0.0000 </r>
       <r>    5.3410    0.0000 </r>
       <r>    5.3514    0.0000 </r>
       <r>    5.5720    0.0000 </r>
       <r>    5.7771    0.0000 </r>
       <r>    5.8005    0.0000 </r>
       <r>    6.0173    0.0000 </r>
      </set>
      <set comment="kpoint 8">
       <r>  -19.7734    1.0000 </r>
       <r>  -19.7388    1.0000 </r>
       <r>  -19.7286    1.0000 </r>
       <r>  -19.6934    1.0000 </r>
       <r>  -12.5713    1.0000 </r>
       <r>  -12.5578    1.0000 </r>
       <r>  -12.5566    1.0000 </r>
       <r>  -12.5433    1.0000 </r>
       <r>   -6.8836    1.0000 </r>
       <r>   -6.6382    1.0000 </r>
       <r>   -6.6340    1.0000 </r>
       <r>   -6.4983    1.0000 </r>
       <r>   -6.4874    1.0000 </r>
       <r>   -6.4397    1.0000 </r>
       <r>   -6.4342    1.0000 </r>
       <r>   -6.2507    1.0000 </r>
       <r>   -6.2482    1.0000 </r>
       <r>   -6.1956    1.0000 </r>
       <r>   -6.1860    1.0000 </r>
       <r>   -6.1291    1.0000 </r>
       <r>   -1.2609    1.0000 </r>
       <r>   -1.0474    1.0000 </r>
       <r>   -1.0446    1.0000 </r>
       <r>   -0.8493    1.0000 </r>
       <r>   -0.7054    1.0000 </r>
       <r>   -0.6115    1.0000 </r>
       <r>   -0.6097    1.0000 </r>
       <r>   -0.5615    1.0000 </r>
       <r>   -0.5120    1.0000 </r>
       <r>   -0.5116    1.0000 </r>
       <r>   -0.4692    1.0000 </r>
       <r>   -0.4679    1.0000 </r>
       <r>    5.2713    0.0000 </r>
       <r>    5.6116    0.0000 </r>
       <r>    5.7851    0.0000 </r>
       <r>    5.7949    0.0000 </r>
       <r>    5.9422    0.0000 </r>
       <r>    6.1144    0.0000 </r>
       <r>    6.3533    0.0000 </r>
       <r>    6.3582    0.0000 </r>
      </set>
      <set comment="kpoint 9">
       <r>  -19.7734    1.0000 </r>
       <r>  -19.7388    1.0000 </r>
       <r>  -19.7286    1.0000 </r>
       <r>  -19.6934    1.0000 </r>
       <r>  -12.5713    1.0000 </r>
       <r>  -12.5578    1.0000 </r>
       <r>  -12.5566    1.0000 </r>
       <r>  -12.5433    1.0000 </r>
       <r>   -6.8836    1.0000 </r>
       <r>   -6.6382    1.0000 </r>
       <r>   -6.6340    1.0000 </r>
       <r>   -6.4983    1.0000 </r>
       <r>   -6.4874    1.0000 </r>
       <r>   -6.4397    1.0000 </r>
       <r>   -6.4342    1.0000 </r>
       <r>   -6.2507    1.0000 </r>
       <r>   -6.2482    1.0000 </r>
       <r>   -6.1956    1.0000 </r>
       <r>   -6.1860    1.0000 </r>
       <r>   -6.1291    1.0000 </r>
       <r>   -1.2609    1.0000 </r>
       <r>   -1.0474    1.0000 </r>
       <r>   -1.0446    1.0000 </r>
       <r>   -0.8493    1.0000 </r>
       <r>   -0.7054    1.0000 </r>
       <r>   -0.6115    1.0000 </r>
       <r>   -0.6097    1.0000 </r>
       <r>   -0.5615    1.0000 </r>
       <r>   -0.5120    1.0000 </r>
       <r>   -0.5116    1.0000 </r>
       <r>   -0.4692    1.0000 </r>
       <r>   -0.4679    1.0000 </r>
       <r>    5.2713    0.0000 </r>
       <r>    5.6116    0.0000 </r>
       <r>    5.7851    0.0000 </r>
       <r>    5.7949    0.0000 </r>
       <r>    5.9422    0.0000 </r>
       <r>    6.1144    0.0000 </r>
       <r>    6.3533    0.0000 </r>
       <r>    6.3582    0.0000 </r>
      </set>
      <set comment="kpoint 10">
       <r>  -19.7702    1.0000 </r>
       <r>  -19.7504    1.0000 </r>
       <r>  -19.7168    1.0000 </r>
       <r>  -19.6968    1.0000 </r>
       <r>  -12.5711    1.0000 </r>
       <r>  -12.5589    1.0000 </r>
       <r>  -12.5557    1.0000 </r>
       <r>  -12.5433    1.0000 </r>
       <r>   -6.8512    1.0000 </r>
       <r>   -6.7591    1.0000 </r>
       <r>   -6.5384    1.0000 </r>
       <r>   -6.5005    1.0000 </r>
       <r>   -6.4880    1.0000 </r>
       <r>   -6.4660    1.0000 </r>
       <r>   -6.3740    1.0000 </r>
       <r>   -6.2867    1.0000 </r>
       <r>   -6.2443    1.0000 </r>
       <r>   -6.2186    1.0000 </r>
       <r>   -6.1625    1.0000 </r>
       <r>   -6.1360    1.0000 </r>
       <r>   -1.2343    1.0000 </r>
       <r>   -1.1571    1.0000 </r>
       <r>   -0.9367    1.0000 </r>
       <r>   -0.8689    1.0000 </r>
       <r>   -0.6925    1.0000 </r>
       <r>   -0.6564    1.0000 </r>
       <r>   -0.5557    1.0000 </r>
       <r>   -0.5555    1.0000 </r>
       <r>   -0.5339    1.0000 </r>
       <r>   -0.4966    1.0000 </r>
       <r>   -0.4914    1.0000 </r>
       <r>   -0.4721    1.0000 </r>
       <r>    5.3859    0.0000 </r>
       <r>    5.6038    0.0000 </r>
       <r>    5.7086    0.0000 </r>
       <r>    5.9490    0.0000 </r>
       <r>    6.0123    0.0000 </r>
       <r>    6.0267    0.0000 </r>
       <r>    6.0689    0.0000 </r>
       <r>    6.2572    0.0000 </r>
      </set>
      <set comment="kpoint 11">
       <r>  -19.7702    1.0000 </r>
       <r>  -19.7504    1.0000 </r>
       <r>  -19.7168    1.0000 </r>
       <r>  -19.6968    1.0000 </r>
       <r>  -12.5711    1.0000 </r>
       <r>  -12.5589    1.0000 </r>
       <r>  -12.5557    1.0000 </r>
       <r>  -12.5433    1.0000 </r>
       <r>   -6.8512    1.0000 </r>
       <r>   -6.7591    1.0000 </r>
       <r>   -6.5384    1.0000 </r>
       <r>   -6.5005    1.0000 </r>
       <r>   -6.4880    1.0000 </r>
       <r>   -6.4660    1.0000 </r>
       <r>   -6.3740    1.0000 </r>
       <r>   -6.2867    1.0000 </r>
       <r>   -6.2443    1.0000 </r>
       <r>   -6.2186    1.0000 </r>
       <r>   -6.1625    1.0000 </r>
       <r>   -6.1360    1.0000 </r>
       <r>   -1.2343    1.0000 </r>
       <r>   -1.1571    1.0000 </r>
       <r>   -0.9367    1.0000 </r>
       <r>   -0.8689    1.0000 </r>
       <r>   -0.6925    1.0000 </r>
       <r>   -0.6564    1.0000 </r>
       <r>   -0.5558    1.0000 </r>
       <r>   -0.5555    1.0000 </r>
       <r>   -0.5339    1.0000 </r>
       <r>   -0.4966    1.0000 </r>
       <r>   -0.4914    1.0000 </r>
       <r>   -0.4721    1.0000 </r>
       <r>    5.3859    0.0000 </r>
       <r>    5.6038    0.0000 </r>
       <r>    5.7086    0.0000 </r>
       <r>    5.9490    0.0000 </r>
       <r>    6.0124    0.0000 </r>
       <r>    6.0267    0.0000 </r>
       <r>    6.0689    0.0000 </r>
       <r>    6.2572    0.0000 </r>
      </set>
      <set comment="kpoint 12">
       <r>  -19.7702    1.0000 </r>
       <r>  -19.7504    1.0000 </r>
       <r>  -19.7168    1.0000 </r>
       <r>  -19.6968    1.0000 </r>
       <r>  -12.5711    1.0000 </r>
       <r>  -12.5589    1.0000 </r>
       <r>  -12.5557    1.0000 </r>
       <r>  -12.5433    1.0000 </r>
       <r>   -6.8512    1.0000 </r>
       <r>   -6.7591    1.0000 </r>
       <r>   -6.5384    1.0000 </r>
       <r>   -6.5005    1.0000 </r>
       <r>   -6.4880    1.0000 </r>
       <r>   -6.4660    1.0000 </r>
       <r>   -6.3740    1.0000 </r>
       <r>   -6.2867    1.0000 </r>
       <r>   -6.2443    1.0000 </r>
       <r>   -6.2186    1.0000 </r>
       <r>   -6.1625    1.0000 </r>
       <r>   -6.1360    1.0000 </r>
       <r>   -1.2343    1.0000 </r>
       <r>   -1.1571    1.0000 </r>
       <r>   -0.9367    1.0000 </r>
       <r>   -0.8689    1.0000 </r>
       <r>   -0.6925    1.0000 </r>
       <r>   -0.6564    1.0000 </r>
       <r>   -0.5557    1.0000 </r>
       <r>   -0.5555    1.0000 </r>
       <r>   -0.5339    1.0000 </r>
       <r>   -0.4966    1.0000 </r>
       <r>   -0.4914    1.0000 </r>
       <r>   -0.4721    1.0000 </r>
       <r>    5.3859    0.0000 </r>
       <r>    5.6038    0.0000 </r>
       <r>    5.7086    0.0000 </r>
       <r>    5.9490    0.0000 </r>
       <r>    6.0124    0.0000 </r>
       <r>    6.0266    0.0000 </r>
       <r>    6.0689    0.0000 </r>
       <r>    6.2572    0.0000 </r>
      </set>
      <set comment="kpoint 13">
       <r>  -19.7498    1.0000 </r>
       <r>  -19.7167    1.0000 </r>
       <r>  -19.7065    1.0000 </r>
       <r>  -19.6729    1.0000 </r>
       <r>  -12.5793    1.0000 </r>
       <r>  -12.5449    1.0000 </r>
       <r>  -12.5442    1.0000 </r>
       <r>  -12.5100    1.0000 </r>
       <r>   -6.9529    1.0000 </r>
       <r>   -6.7665    1.0000 </r>
       <r>   -6.7499    1.0000 </r>
       <r>   -6.7433    1.0000 </r>
       <r>   -6.6462    1.0000 </r>
       <r>   -6.5580    1.0000 </r>
       <r>   -6.5548    1.0000 </r>
       <r>   -6.2097    1.0000 </r>
       <r>   -6.2069    1.0000 </r>
       <r>   -6.1619    1.0000 </r>
       <r>   -6.1520    1.0000 </r>
       <r>   -6.1029    1.0000 </r>
       <r>   -1.1931    1.0000 </r>
       <r>   -1.0942    1.0000 </r>
       <r>   -1.0918    1.0000 </r>
       <r>   -1.0438    1.0000 </r>
       <r>   -0.7665    1.0000 </r>
       <r>   -0.6757    1.0000 </r>
       <r>   -0.6725    1.0000 </r>
       <r>   -0.5421    1.0000 </r>
       <r>   -0.5380    1.0000 </r>
       <r>   -0.5216    1.0000 </r>
       <r>   -0.5207    1.0000 </r>
       <r>   -0.5017    1.0000 </r>
       <r>    5.5595    0.0000 </r>
       <r>    5.8705    0.0000 </r>
       <r>    5.9013    0.0000 </r>
       <r>    5.9122    0.0000 </r>
       <r>    6.2070    0.0000 </r>
       <r>    6.2990    0.0000 </r>
       <r>    6.5215    0.0000 </r>
       <r>    6.5221    0.0000 </r>
      </set>
      <set comment="kpoint 14">
       <r>  -19.7498    1.0000 </r>
       <r>  -19.7167    1.0000 </r>
       <r>  -19.7065    1.0000 </r>
       <r>  -19.6729    1.0000 </r>
       <r>  -12.5793    1.0000 </r>
       <r>  -12.5449    1.0000 </r>
       <r>  -12.5442    1.0000 </r>
       <r>  -12.5100    1.0000 </r>
       <r>   -6.9529    1.0000 </r>
       <r>   -6.7665    1.0000 </r>
       <r>   -6.7499    1.0000 </r>
       <r>   -6.7433    1.0000 </r>
       <r>   -6.6462    1.0000 </r>
       <r>   -6.5580    1.0000 </r>
       <r>   -6.5548    1.0000 </r>
       <r>   -6.2097    1.0000 </r>
       <r>   -6.2069    1.0000 </r>
       <r>   -6.1619    1.0000 </r>
       <r>   -6.1520    1.0000 </r>
       <r>   -6.1029    1.0000 </r>
       <r>   -1.1931    1.0000 </r>
       <r>   -1.0942    1.0000 </r>
       <r>   -1.0918    1.0000 </r>
       <r>   -1.0438    1.0000 </r>
       <r>   -0.7665    1.0000 </r>
       <r>   -0.6757    1.0000 </r>
       <r>   -0.6725    1.0000 </r>
       <r>   -0.5421    1.0000 </r>
       <r>   -0.5380    1.0000 </r>
       <r>   -0.5216    1.0000 </r>
       <r>   -0.5207    1.0000 </r>
       <r>   -0.5017    1.0000 </r>
       <r>    5.5595    0.0000 </r>
       <r>    5.8705    0.0000 </r>
       <r>    5.9013    0.0000 </r>
       <r>    5.9122    0.0000 </r>
       <r>    6.2071    0.0000 </r>
       <r>    6.2990    0.0000 </r>
       <r>    6.5215    0.0000 </r>
       <r>    6.5221    0.0000 </r>
      </set>
      <set comment="kpoint 15">
       <r>  -19.7468    1.0000 </r>
       <r>  -19.7274    1.0000 </r>
       <r>  -19.6956    1.0000 </r>
       <r>  -19.6760    1.0000 </r>
       <r>  -12.5760    1.0000 </r>
       <r>  -12.5593    1.0000 </r>
       <r>  -12.5302    1.0000 </r>
       <r>  -12.5130    1.0000 </r>
       <r>   -6.9190    1.0000 </r>
       <r>   -6.8336    1.0000 </r>
       <r>   -6.7438    1.0000 </r>
       <r>   -6.6941    1.0000 </r>
       <r>   -6.6798    1.0000 </r>
       <r>   -6.6550    1.0000 </r>
       <r>   -6.3945    1.0000 </r>
       <r>   -6.2591    1.0000 </r>
       <r>   -6.2044    1.0000 </r>
       <r>   -6.1808    1.0000 </r>
       <r>   -6.1327    1.0000 </r>
       <r>   -6.1086    1.0000 </r>
       <r>   -1.1749    1.0000 </r>
       <r>   -1.1322    1.0000 </r>
       <r>   -1.0673    1.0000 </r>
       <r>   -1.0505    1.0000 </r>
       <r>   -0.7538    1.0000 </r>
       <r>   -0.7206    1.0000 </r>
       <r>   -0.6159    1.0000 </r>
       <r>   -0.5601    1.0000 </r>
       <r>   -0.5409    1.0000 </r>
       <r>   -0.5275    1.0000 </r>
       <r>   -0.5155    1.0000 </r>
       <r>   -0.5022    1.0000 </r>
       <r>    5.6633    0.0000 </r>
       <r>    5.8459    0.0000 </r>
       <r>    5.8659    0.0000 </r>
       <r>    5.8838    0.0000 </r>
       <r>    6.2760    0.0000 </r>
       <r>    6.3366    0.0000 </r>
       <r>    6.4149    0.0000 </r>
       <r>    6.4685    0.0000 </r>
      </set>
      <set comment="kpoint 16">
       <r>  -19.7468    1.0000 </r>
       <r>  -19.7274    1.0000 </r>
       <r>  -19.6956    1.0000 </r>
       <r>  -19.6760    1.0000 </r>
       <r>  -12.5760    1.0000 </r>
       <r>  -12.5593    1.0000 </r>
       <r>  -12.5302    1.0000 </r>
       <r>  -12.5130    1.0000 </r>
       <r>   -6.9190    1.0000 </r>
       <r>   -6.8336    1.0000 </r>
       <r>   -6.7439    1.0000 </r>
       <r>   -6.6940    1.0000 </r>
       <r>   -6.6798    1.0000 </r>
       <r>   -6.6551    1.0000 </r>
       <r>   -6.3945    1.0000 </r>
       <r>   -6.2591    1.0000 </r>
       <r>   -6.2044    1.0000 </r>
       <r>   -6.1808    1.0000 </r>
       <r>   -6.1327    1.0000 </r>
       <r>   -6.1086    1.0000 </r>
       <r>   -1.1749    1.0000 </r>
       <r>   -1.1322    1.0000 </r>
       <r>   -1.0673    1.0000 </r>
       <r>   -1.0505    1.0000 </r>
       <r>   -0.7538    1.0000 </r>
       <r>   -0.7205    1.0000 </r>
       <r>   -0.6159    1.0000 </r>
       <r>   -0.5601    1.0000 </r>
       <r>   -0.5409    1.0000 </r>
       <r>   -0.5275    1.0000 </r>
       <r>   -0.5155    1.0000 </r>
       <r>   -0.5022    1.0000 </r>
       <r>    5.6633    0.0000 </r>
       <r>    5.8458    0.0000 </r>
       <r>    5.8659    0.0000 </r>
       <r>    5.8838    0.0000 </r>
       <r>    6.2760    0.0000 </r>
       <r>    6.3366    0.0000 </r>
       <r>    6.4149    0.0000 </r>
       <r>    6.4685    0.0000 </r>
      </set>
      <set comment="kpoint 17">
       <r>  -19.7468    1.0000 </r>
       <r>  -19.7274    1.0000 </r>
       <r>  -19.6956    1.0000 </r>
       <r>  -19.6760    1.0000 </r>
       <r>  -12.5760    1.0000 </r>
       <r>  -12.5593    1.0000 </r>
       <r>  -12.5302    1.0000 </r>
       <r>  -12.5130    1.0000 </r>
       <r>   -6.9190    1.0000 </r>
       <r>   -6.8336    1.0000 </r>
       <r>   -6.7439    1.0000 </r>
       <r>   -6.6940    1.0000 </r>
       <r>   -6.6798    1.0000 </r>
       <r>   -6.6551    1.0000 </r>
       <r>   -6.3945    1.0000 </r>
       <r>   -6.2591    1.0000 </r>
       <r>   -6.2044    1.0000 </r>
       <r>   -6.1808    1.0000 </r>
       <r>   -6.1327    1.0000 </r>
       <r>   -6.1086    1.0000 </r>
       <r>   -1.1749    1.0000 </r>
       <r>   -1.1322    1.0000 </r>
       <r>   -1.0673    1.0000 </r>
       <r>   -1.0505    1.0000 </r>
       <r>   -0.7538    1.0000 </r>
       <r>   -0.7205    1.0000 </r>
       <r>   -0.6160    1.0000 </r>
       <r>   -0.5601    1.0000 </r>
       <r>   -0.5409    1.0000 </r>
       <r>   -0.5275    1.0000 </r>
       <r>   -0.5156    1.0000 </r>
       <r>   -0.5022    1.0000 </r>
       <r>    5.6633    0.0000 </r>
       <r>    5.8458    0.0000 </r>
       <r>    5.8659    0.0000 </r>
       <r>    5.8838    0.0000 </r>
       <r>    6.2760    0.0000 </r>
       <r>    6.3366    0.0000 </r>
       <r>    6.4149    0.0000 </r>
       <r>    6.4685    0.0000 </r>
      </set>
      <set comment="kpoint 18">
       <r>  -19.7305    1.0000 </r>
       <r>  -19.6987    1.0000 </r>
       <r>  -19.6884    1.0000 </r>
       <r>  -19.6561    1.0000 </r>
       <r>  -12.5896    1.0000 </r>
       <r>  -12.5357    1.0000 </r>
       <r>  -12.5347    1.0000 </r>
       <r>  -12.4790    1.0000 </r>
       <r>   -7.0107    1.0000 </r>
       <r>   -6.9616    1.0000 </r>
       <r>   -6.8743    1.0000 </r>
       <r>   -6.8650    1.0000 </r>
       <r>   -6.7642    1.0000 </r>
       <r>   -6.6164    1.0000 </r>
       <r>   -6.6095    1.0000 </r>
       <r>   -6.1758    1.0000 </r>
       <r>   -6.1727    1.0000 </r>
       <r>   -6.1341    1.0000 </r>
       <r>   -6.1240    1.0000 </r>
       <r>   -6.0814    1.0000 </r>
       <r>   -1.4420    1.0000 </r>
       <r>   -1.1367    1.0000 </r>
       <r>   -1.1340    1.0000 </r>
       <r>   -0.8799    1.0000 </r>
       <r>   -0.8057    1.0000 </r>
       <r>   -0.7211    1.0000 </r>
       <r>   -0.7176    1.0000 </r>
       <r>   -0.5971    1.0000 </r>
       <r>   -0.5953    1.0000 </r>
       <r>   -0.5302    1.0000 </r>
       <r>   -0.5291    1.0000 </r>
       <r>   -0.4598    1.0000 </r>
       <r>    5.6348    0.0000 </r>
       <r>    5.7688    0.0000 </r>
       <r>    5.8639    0.0000 </r>
       <r>    5.9700    0.0000 </r>
       <r>    5.9801    0.0000 </r>
       <r>    6.5381    0.0000 </r>
       <r>    6.5406    0.0000 </r>
       <r>    6.8921    0.0000 </r>
      </set>
      <set comment="kpoint 19">
       <r>  -19.7305    1.0000 </r>
       <r>  -19.6987    1.0000 </r>
       <r>  -19.6884    1.0000 </r>
       <r>  -19.6561    1.0000 </r>
       <r>  -12.5896    1.0000 </r>
       <r>  -12.5357    1.0000 </r>
       <r>  -12.5347    1.0000 </r>
       <r>  -12.4790    1.0000 </r>
       <r>   -7.0107    1.0000 </r>
       <r>   -6.9616    1.0000 </r>
       <r>   -6.8743    1.0000 </r>
       <r>   -6.8650    1.0000 </r>
       <r>   -6.7642    1.0000 </r>
       <r>   -6.6164    1.0000 </r>
       <r>   -6.6095    1.0000 </r>
       <r>   -6.1758    1.0000 </r>
       <r>   -6.1727    1.0000 </r>
       <r>   -6.1341    1.0000 </r>
       <r>   -6.1240    1.0000 </r>
       <r>   -6.0814    1.0000 </r>
       <r>   -1.4420    1.0000 </r>
       <r>   -1.1367    1.0000 </r>
       <r>   -1.1340    1.0000 </r>
       <r>   -0.8799    1.0000 </r>
       <r>   -0.8057    1.0000 </r>
       <r>   -0.7211    1.0000 </r>
       <r>   -0.7176    1.0000 </r>
       <r>   -0.5971    1.0000 </r>
       <r>   -0.5953    1.0000 </r>
       <r>   -0.5302    1.0000 </r>
       <r>   -0.5291    1.0000 </r>
       <r>   -0.4598    1.0000 </r>
       <r>    5.6348    0.0000 </r>
       <r>    5.7688    0.0000 </r>
       <r>    5.8639    0.0000 </r>
       <r>    5.9700    0.0000 </r>
       <r>    5.9801    0.0000 </r>
       <r>    6.5381    0.0000 </r>
       <r>    6.5406    0.0000 </r>
       <r>    6.8921    0.0000 </r>
      </set>
      <set comment="kpoint 20">
       <r>  -19.7277    1.0000 </r>
       <r>  -19.7086    1.0000 </r>
       <r>  -19.6783    1.0000 </r>
       <r>  -19.6591    1.0000 </r>
       <r>  -12.5833    1.0000 </r>
       <r>  -12.5609    1.0000 </r>
       <r>  -12.5093    1.0000 </r>
       <r>  -12.4855    1.0000 </r>
       <r>   -6.9801    1.0000 </r>
       <r>   -6.9353    1.0000 </r>
       <r>   -6.9206    1.0000 </r>
       <r>   -6.8178    1.0000 </r>
       <r>   -6.8050    1.0000 </r>
       <r>   -6.7766    1.0000 </r>
       <r>   -6.4031    1.0000 </r>
       <r>   -6.2364    1.0000 </r>
       <r>   -6.1715    1.0000 </r>
       <r>   -6.1496    1.0000 </r>
       <r>   -6.1082    1.0000 </r>
       <r>   -6.0860    1.0000 </r>
       <r>   -1.3964    1.0000 </r>
       <r>   -1.2792    1.0000 </r>
       <r>   -1.0052    1.0000 </r>
       <r>   -0.9146    1.0000 </r>
       <r>   -0.7934    1.0000 </r>
       <r>   -0.7644    1.0000 </r>
       <r>   -0.6644    1.0000 </r>
       <r>   -0.6141    1.0000 </r>
       <r>   -0.5889    1.0000 </r>
       <r>   -0.5622    1.0000 </r>
       <r>   -0.4967    1.0000 </r>
       <r>   -0.4684    1.0000 </r>
       <r>    5.6655    0.0000 </r>
       <r>    5.7944    0.0000 </r>
       <r>    5.8832    0.0000 </r>
       <r>    5.9502    0.0000 </r>
       <r>    6.0603    0.0000 </r>
       <r>    6.1596    0.0000 </r>
       <r>    6.8851    0.0000 </r>
       <r>    6.9027    0.0000 </r>
      </set>
      <set comment="kpoint 21">
       <r>  -19.7277    1.0000 </r>
       <r>  -19.7086    1.0000 </r>
       <r>  -19.6783    1.0000 </r>
       <r>  -19.6591    1.0000 </r>
       <r>  -12.5833    1.0000 </r>
       <r>  -12.5609    1.0000 </r>
       <r>  -12.5093    1.0000 </r>
       <r>  -12.4855    1.0000 </r>
       <r>   -6.9801    1.0000 </r>
       <r>   -6.9354    1.0000 </r>
       <r>   -6.9205    1.0000 </r>
       <r>   -6.8177    1.0000 </r>
       <r>   -6.8050    1.0000 </r>
       <r>   -6.7766    1.0000 </r>
       <r>   -6.4031    1.0000 </r>
       <r>   -6.2364    1.0000 </r>
       <r>   -6.1715    1.0000 </r>
       <r>   -6.1496    1.0000 </r>
       <r>   -6.1082    1.0000 </r>
       <r>   -6.0860    1.0000 </r>
       <r>   -1.3964    1.0000 </r>
       <r>   -1.2792    1.0000 </r>
       <r>   -1.0052    1.0000 </r>
       <r>   -0.9146    1.0000 </r>
       <r>   -0.7934    1.0000 </r>
       <r>   -0.7644    1.0000 </r>
       <r>   -0.6644    1.0000 </r>
       <r>   -0.6141    1.0000 </r>
       <r>   -0.5889    1.0000 </r>
       <r>   -0.5622    1.0000 </r>
       <r>   -0.4967    1.0000 </r>
       <r>   -0.4684    1.0000 </r>
       <r>    5.6655    0.0000 </r>
       <r>    5.7944    0.0000 </r>
       <r>    5.8832    0.0000 </r>
       <r>    5.9502    0.0000 </r>
       <r>    6.0604    0.0000 </r>
       <r>    6.1596    0.0000 </r>
       <r>    6.8851    0.0000 </r>
       <r>    6.9026    0.0000 </r>
      </set>
      <set comment="kpoint 22">
       <r>  -19.7277    1.0000 </r>
       <r>  -19.7086    1.0000 </r>
       <r>  -19.6783    1.0000 </r>
       <r>  -19.6591    1.0000 </r>
       <r>  -12.5833    1.0000 </r>
       <r>  -12.5609    1.0000 </r>
       <r>  -12.5093    1.0000 </r>
       <r>  -12.4855    1.0000 </r>
       <r>   -6.9801    1.0000 </r>
       <r>   -6.9355    1.0000 </r>
       <r>   -6.9205    1.0000 </r>
       <r>   -6.8177    1.0000 </r>
       <r>   -6.8050    1.0000 </r>
       <r>   -6.7767    1.0000 </r>
       <r>   -6.4031    1.0000 </r>
       <r>   -6.2364    1.0000 </r>
       <r>   -6.1715    1.0000 </r>
       <r>   -6.1496    1.0000 </r>
       <r>   -6.1082    1.0000 </r>
       <r>   -6.0860    1.0000 </r>
       <r>   -1.3964    1.0000 </r>
       <r>   -1.2792    1.0000 </r>
       <r>   -1.0052    1.0000 </r>
       <r>   -0.9146    1.0000 </r>
       <r>   -0.7934    1.0000 </r>
       <r>   -0.7644    1.0000 </r>
       <r>   -0.6644    1.0000 </r>
       <r>   -0.6141    1.0000 </r>
       <r>   -0.5889    1.0000 </r>
       <r>   -0.5622    1.0000 </r>
       <r>   -0.4967    1.0000 </r>
       <r>   -0.4684    1.0000 </r>
       <r>    5.6655    0.0000 </r>
       <r>    5.7943    0.0000 </r>
       <r>    5.8832    0.0000 </r>
       <r>    5.9502    0.0000 </r>
       <r>    6.0604    0.0000 </r>
       <r>    6.1596    0.0000 </r>
       <r>    6.8852    0.0000 </r>
       <r>    6.9025    0.0000 </r>
      </set>
      <set comment="kpoint 23">
       <r>  -19.7230    1.0000 </r>
       <r>  -19.6917    1.0000 </r>
       <r>  -19.6814    1.0000 </r>
       <r>  -19.6497    1.0000 </r>
       <r>  -12.5939    1.0000 </r>
       <r>  -12.5323    1.0000 </r>
       <r>  -12.5313    1.0000 </r>
       <r>  -12.4668    1.0000 </r>
       <r>   -7.0341    1.0000 </r>
       <r>   -7.0331    1.0000 </r>
       <r>   -6.9227    1.0000 </r>
       <r>   -6.9125    1.0000 </r>
       <r>   -6.8074    1.0000 </r>
       <r>   -6.6347    1.0000 </r>
       <r>   -6.6272    1.0000 </r>
       <r>   -6.1627    1.0000 </r>
       <r>   -6.1595    1.0000 </r>
       <r>   -6.1233    1.0000 </r>
       <r>   -6.1132    1.0000 </r>
       <r>   -6.0731    1.0000 </r>
       <r>   -1.5318    1.0000 </r>
       <r>   -1.1516    1.0000 </r>
       <r>   -1.1486    1.0000 </r>
       <r>   -0.8193    1.0000 </r>
       <r>   -0.8183    1.0000 </r>
       <r>   -0.7393    1.0000 </r>
       <r>   -0.7358    1.0000 </r>
       <r>   -0.6192    1.0000 </r>
       <r>   -0.6176    1.0000 </r>
       <r>   -0.5341    1.0000 </r>
       <r>   -0.5328    1.0000 </r>
       <r>   -0.4425    1.0000 </r>
       <r>    5.5405    0.0000 </r>
       <r>    5.6175    0.0000 </r>
       <r>    6.0011    0.0000 </r>
       <r>    6.0096    0.0000 </r>
       <r>    6.0175    0.0000 </r>
       <r>    6.5199    0.0000 </r>
       <r>    6.5234    0.0000 </r>
       <r>    7.1415    0.0000 </r>
      </set>
      <set comment="kpoint 24">
       <r>  -19.7230    1.0000 </r>
       <r>  -19.6917    1.0000 </r>
       <r>  -19.6814    1.0000 </r>
       <r>  -19.6497    1.0000 </r>
       <r>  -12.5939    1.0000 </r>
       <r>  -12.5323    1.0000 </r>
       <r>  -12.5313    1.0000 </r>
       <r>  -12.4668    1.0000 </r>
       <r>   -7.0341    1.0000 </r>
       <r>   -7.0331    1.0000 </r>
       <r>   -6.9227    1.0000 </r>
       <r>   -6.9125    1.0000 </r>
       <r>   -6.8074    1.0000 </r>
       <r>   -6.6347    1.0000 </r>
       <r>   -6.6272    1.0000 </r>
       <r>   -6.1627    1.0000 </r>
       <r>   -6.1595    1.0000 </r>
       <r>   -6.1233    1.0000 </r>
       <r>   -6.1132    1.0000 </r>
       <r>   -6.0731    1.0000 </r>
       <r>   -1.5318    1.0000 </r>
       <r>   -1.1516    1.0000 </r>
       <r>   -1.1486    1.0000 </r>
       <r>   -0.8193    1.0000 </r>
       <r>   -0.8183    1.0000 </r>
       <r>   -0.7393    1.0000 </r>
       <r>   -0.7358    1.0000 </r>
       <r>   -0.6192    1.0000 </r>
       <r>   -0.6176    1.0000 </r>
       <r>   -0.5340    1.0000 </r>
       <r>   -0.5328    1.0000 </r>
       <r>   -0.4425    1.0000 </r>
       <r>    5.5405    0.0000 </r>
       <r>    5.6175    0.0000 </r>
       <r>    6.0011    0.0000 </r>
       <r>    6.0096    0.0000 </r>
       <r>    6.0175    0.0000 </r>
       <r>    6.5199    0.0000 </r>
       <r>    6.5234    0.0000 </r>
       <r>    7.1414    0.0000 </r>
      </set>
      <set comment="kpoint 25">
       <r>  -19.7203    1.0000 </r>
       <r>  -19.7014    1.0000 </r>
       <r>  -19.6716    1.0000 </r>
       <r>  -19.6525    1.0000 </r>
       <r>  -12.5865    1.0000 </r>
       <r>  -12.5616    1.0000 </r>
       <r>  -12.5014    1.0000 </r>
       <r>  -12.4747    1.0000 </r>
       <r>   -7.0190    1.0000 </r>
       <r>   -6.9825    1.0000 </r>
       <r>   -6.9737    1.0000 </r>
       <r>   -6.8631    1.0000 </r>
       <r>   -6.8386    1.0000 </r>
       <r>   -6.8208    1.0000 </r>
       <r>   -6.4063    1.0000 </r>
       <r>   -6.2279    1.0000 </r>
       <r>   -6.1587    1.0000 </r>
       <r>   -6.1375    1.0000 </r>
       <r>   -6.0987    1.0000 </r>
       <r>   -6.0773    1.0000 </r>
       <r>   -1.4763    1.0000 </r>
       <r>   -1.3319    1.0000 </r>
       <r>   -0.9806    1.0000 </r>
       <r>   -0.8608    1.0000 </r>
       <r>   -0.8109    1.0000 </r>
       <r>   -0.7819    1.0000 </r>
       <r>   -0.6839    1.0000 </r>
       <r>   -0.6353    1.0000 </r>
       <r>   -0.6085    1.0000 </r>
       <r>   -0.5758    1.0000 </r>
       <r>   -0.4899    1.0000 </r>
       <r>   -0.4542    1.0000 </r>
       <r>    5.6066    0.0000 </r>
       <r>    5.7228    0.0000 </r>
       <r>    5.7852    0.0000 </r>
       <r>    6.0315    0.0000 </r>
       <r>    6.0857    0.0000 </r>
       <r>    6.1495    0.0000 </r>
       <r>    7.1608    0.0000 </r>
       <r>    7.1633    0.0000 </r>
      </set>
      <set comment="kpoint 26">
       <r>  -19.7203    1.0000 </r>
       <r>  -19.7014    1.0000 </r>
       <r>  -19.6716    1.0000 </r>
       <r>  -19.6525    1.0000 </r>
       <r>  -12.5865    1.0000 </r>
       <r>  -12.5616    1.0000 </r>
       <r>  -12.5014    1.0000 </r>
       <r>  -12.4747    1.0000 </r>
       <r>   -7.0190    1.0000 </r>
       <r>   -6.9825    1.0000 </r>
       <r>   -6.9737    1.0000 </r>
       <r>   -6.8631    1.0000 </r>
       <r>   -6.8386    1.0000 </r>
       <r>   -6.8208    1.0000 </r>
       <r>   -6.4063    1.0000 </r>
       <r>   -6.2279    1.0000 </r>
       <r>   -6.1587    1.0000 </r>
       <r>   -6.1375    1.0000 </r>
       <r>   -6.0987    1.0000 </r>
       <r>   -6.0773    1.0000 </r>
       <r>   -1.4763    1.0000 </r>
       <r>   -1.3319    1.0000 </r>
       <r>   -0.9806    1.0000 </r>
       <r>   -0.8608    1.0000 </r>
       <r>   -0.8109    1.0000 </r>
       <r>   -0.7819    1.0000 </r>
       <r>   -0.6839    1.0000 </r>
       <r>   -0.6353    1.0000 </r>
       <r>   -0.6085    1.0000 </r>
       <r>   -0.5758    1.0000 </r>
       <r>   -0.4899    1.0000 </r>
       <r>   -0.4542    1.0000 </r>
       <r>    5.6066    0.0000 </r>
       <r>    5.7228    0.0000 </r>
       <r>    5.7852    0.0000 </r>
       <r>    6.0315    0.0000 </r>
       <r>    6.0857    0.0000 </r>
       <r>    6.1495    0.0000 </r>
       <r>    7.1608    0.0000 </r>
       <r>    7.1632    0.0000 </r>
      </set>
      <set comment="kpoint 27">
       <r>  -19.7852    1.0000 </r>
       <r>  -19.7498    1.0000 </r>
       <r>  -19.7397    1.0000 </r>
       <r>  -19.7036    1.0000 </r>
       <r>  -12.5770    1.0000 </r>
       <r>  -12.5636    1.0000 </r>
       <r>  -12.5624    1.0000 </r>
       <r>  -12.5499    1.0000 </r>
       <r>   -6.8457    1.0000 </r>
       <r>   -6.5947    1.0000 </r>
       <r>   -6.5866    1.0000 </r>
       <r>   -6.3739    1.0000 </r>
       <r>   -6.3121    1.0000 </r>
       <r>   -6.3063    1.0000 </r>
       <r>   -6.2970    1.0000 </r>
       <r>   -6.2802    1.0000 </r>
       <r>   -6.2691    1.0000 </r>
       <r>   -6.2688    1.0000 </r>
       <r>   -6.2564    1.0000 </r>
       <r>   -6.2263    1.0000 </r>
       <r>   -1.3866    1.0000 </r>
       <r>   -1.0115    1.0000 </r>
       <r>   -1.0080    1.0000 </r>
       <r>   -0.7092    1.0000 </r>
       <r>   -0.6221    1.0000 </r>
       <r>   -0.5779    1.0000 </r>
       <r>   -0.5768    1.0000 </r>
       <r>   -0.5641    1.0000 </r>
       <r>   -0.5272    1.0000 </r>
       <r>   -0.5246    1.0000 </r>
       <r>   -0.4518    1.0000 </r>
       <r>   -0.4319    1.0000 </r>
       <r>    5.2025    0.0000 </r>
       <r>    5.2701    0.0000 </r>
       <r>    5.3946    0.0000 </r>
       <r>    5.7440    0.0000 </r>
       <r>    5.7495    0.0000 </r>
       <r>    6.1373    0.0000 </r>
       <r>    6.1527    0.0000 </r>
       <r>    6.2648    0.0000 </r>
      </set>
      <set comment="kpoint 28">
       <r>  -19.7819    1.0000 </r>
       <r>  -19.7619    1.0000 </r>
       <r>  -19.7274    1.0000 </r>
       <r>  -19.7072    1.0000 </r>
       <r>  -12.5768    1.0000 </r>
       <r>  -12.5644    1.0000 </r>
       <r>  -12.5619    1.0000 </r>
       <r>  -12.5498    1.0000 </r>
       <r>   -6.8139    1.0000 </r>
       <r>   -6.7220    1.0000 </r>
       <r>   -6.4498    1.0000 </r>
       <r>   -6.3656    1.0000 </r>
       <r>   -6.3434    1.0000 </r>
       <r>   -6.3361    1.0000 </r>
       <r>   -6.2841    1.0000 </r>
       <r>   -6.2774    1.0000 </r>
       <r>   -6.2673    1.0000 </r>
       <r>   -6.2663    1.0000 </r>
       <r>   -6.2559    1.0000 </r>
       <r>   -6.2354    1.0000 </r>
       <r>   -1.3398    1.0000 </r>
       <r>   -1.2058    1.0000 </r>
       <r>   -0.8006    1.0000 </r>
       <r>   -0.6915    1.0000 </r>
       <r>   -0.6589    1.0000 </r>
       <r>   -0.6418    1.0000 </r>
       <r>   -0.5597    1.0000 </r>
       <r>   -0.5417    1.0000 </r>
       <r>   -0.5147    1.0000 </r>
       <r>   -0.5054    1.0000 </r>
       <r>   -0.4677    1.0000 </r>
       <r>   -0.4652    1.0000 </r>
       <r>    5.3735    0.0000 </r>
       <r>    5.3936    0.0000 </r>
       <r>    5.4362    0.0000 </r>
       <r>    5.5585    0.0000 </r>
       <r>    5.7151    0.0000 </r>
       <r>    5.8685    0.0000 </r>
       <r>    5.9729    0.0000 </r>
       <r>    6.1774    0.0000 </r>
      </set>
      <set comment="kpoint 29">
       <r>  -19.7819    1.0000 </r>
       <r>  -19.7619    1.0000 </r>
       <r>  -19.7274    1.0000 </r>
       <r>  -19.7072    1.0000 </r>
       <r>  -12.5768    1.0000 </r>
       <r>  -12.5644    1.0000 </r>
       <r>  -12.5618    1.0000 </r>
       <r>  -12.5498    1.0000 </r>
       <r>   -6.8139    1.0000 </r>
       <r>   -6.7220    1.0000 </r>
       <r>   -6.4498    1.0000 </r>
       <r>   -6.3656    1.0000 </r>
       <r>   -6.3434    1.0000 </r>
       <r>   -6.3361    1.0000 </r>
       <r>   -6.2841    1.0000 </r>
       <r>   -6.2774    1.0000 </r>
       <r>   -6.2673    1.0000 </r>
       <r>   -6.2663    1.0000 </r>
       <r>   -6.2559    1.0000 </r>
       <r>   -6.2354    1.0000 </r>
       <r>   -1.3398    1.0000 </r>
       <r>   -1.2058    1.0000 </r>
       <r>   -0.8006    1.0000 </r>
       <r>   -0.6915    1.0000 </r>
       <r>   -0.6589    1.0000 </r>
       <r>   -0.6418    1.0000 </r>
       <r>   -0.5597    1.0000 </r>
       <r>   -0.5417    1.0000 </r>
       <r>   -0.5147    1.0000 </r>
       <r>   -0.5054    1.0000 </r>
       <r>   -0.4677    1.0000 </r>
       <r>   -0.4651    1.0000 </r>
       <r>    5.3735    0.0000 </r>
       <r>    5.3936    0.0000 </r>
       <r>    5.4362    0.0000 </r>
       <r>    5.5585    0.0000 </r>
       <r>    5.7151    0.0000 </r>
       <r>    5.8685    0.0000 </r>
       <r>    5.9729    0.0000 </r>
       <r>    6.1774    0.0000 </r>
      </set>
      <set comment="kpoint 30">
       <r>  -19.7666    1.0000 </r>
       <r>  -19.7323    1.0000 </r>
       <r>  -19.7221    1.0000 </r>
       <r>  -19.6873    1.0000 </r>
       <r>  -12.5680    1.0000 </r>
       <r>  -12.5517    1.0000 </r>
       <r>  -12.5508    1.0000 </r>
       <r>  -12.5350    1.0000 </r>
       <r>   -6.8895    1.0000 </r>
       <r>   -6.6269    1.0000 </r>
       <r>   -6.6220    1.0000 </r>
       <r>   -6.5044    1.0000 </r>
       <r>   -6.4849    1.0000 </r>
[...]
       <r>   -1.2599    1.0000 </r>
       <r>   -1.1116    1.0000 </r>
       <r>   -1.0026    1.0000 </r>
       <r>   -0.9892    1.0000 </r>
       <r>   -0.9113    1.0000 </r>
       <r>   -0.8556    1.0000 </r>
       <r>   -0.6879    1.0000 </r>
       <r>   -0.5237    1.0000 </r>
       <r>    5.8249    0.0000 </r>
       <r>    5.9058    0.0000 </r>
       <r>    6.2727    0.0000 </r>
       <r>    6.3695    0.0000 </r>
       <r>    7.2177    0.0000 </r>
       <r>    7.5841    0.0000 </r>
       <r>    7.6906    0.0000 </r>
       <r>    7.7081    0.0000 </r>
      </set>
      <set comment="kpoint 95">
       <r>  -19.6574    1.0000 </r>
       <r>  -19.6278    1.0000 </r>
       <r>  -19.6174    1.0000 </r>
       <r>  -19.5874    1.0000 </r>
       <r>  -12.4698    1.0000 </r>
       <r>  -12.4305    1.0000 </r>
       <r>  -12.4298    1.0000 </r>
       <r>  -12.3893    1.0000 </r>
       <r>   -7.0339    1.0000 </r>
       <r>   -7.0339    1.0000 </r>
       <r>   -6.9287    1.0000 </r>
       <r>   -6.9287    1.0000 </r>
       <r>   -6.9202    1.0000 </r>
       <r>   -6.9202    1.0000 </r>
       <r>   -6.8076    1.0000 </r>
       <r>   -6.8064    1.0000 </r>
       <r>   -6.8064    1.0000 </r>
       <r>   -6.4653    1.0000 </r>
       <r>   -6.4570    1.0000 </r>
       <r>   -6.0758    1.0000 </r>
       <r>   -1.4543    1.0000 </r>
       <r>   -1.4543    1.0000 </r>
       <r>   -1.4542    1.0000 </r>
       <r>   -1.1389    1.0000 </r>
       <r>   -1.1389    1.0000 </r>
       <r>   -1.1361    1.0000 </r>
       <r>   -1.1361    1.0000 </r>
       <r>   -1.0027    1.0000 </r>
       <r>   -0.9978    1.0000 </r>
       <r>   -0.8183    1.0000 </r>
       <r>   -0.8183    1.0000 </r>
       <r>   -0.4431    1.0000 </r>
       <r>    5.5408    0.0000 </r>
       <r>    5.6173    0.0000 </r>
       <r>    6.7779    0.0000 </r>
       <r>    6.7990    0.0000 </r>
       <r>    7.1900    0.0000 </r>
       <r>    7.1913    0.0000 </r>
       <r>    7.5667    0.0000 </r>
       <r>    7.5885    0.0000 </r>
      </set>
      <set comment="kpoint 96">
       <r>  -19.6550    1.0000 </r>
       <r>  -19.6365    1.0000 </r>
       <r>  -19.6085    1.0000 </r>
       <r>  -19.5899    1.0000 </r>
       <r>  -12.4658    1.0000 </r>
       <r>  -12.4478    1.0000 </r>
       <r>  -12.4124    1.0000 </r>
       <r>  -12.3934    1.0000 </r>
       <r>   -7.0206    1.0000 </r>
       <r>   -7.0206    1.0000 </r>
       <r>   -6.9789    1.0000 </r>
       <r>   -6.9789    1.0000 </r>
       <r>   -6.8677    1.0000 </r>
       <r>   -6.8677    1.0000 </r>
       <r>   -6.8220    1.0000 </r>
       <r>   -6.8220    1.0000 </r>
       <r>   -6.7634    1.0000 </r>
       <r>   -6.6382    1.0000 </r>
       <r>   -6.2744    1.0000 </r>
       <r>   -6.1299    1.0000 </r>
       <r>   -1.4119    1.0000 </r>
       <r>   -1.4119    1.0000 </r>
       <r>   -1.3976    1.0000 </r>
       <r>   -1.2957    1.0000 </r>
       <r>   -1.2957    1.0000 </r>
       <r>   -1.2367    1.0000 </r>
       <r>   -0.9788    1.0000 </r>
       <r>   -0.9788    1.0000 </r>
       <r>   -0.8611    1.0000 </r>
       <r>   -0.8611    1.0000 </r>
       <r>   -0.7390    1.0000 </r>
       <r>   -0.5262    1.0000 </r>
       <r>    5.7391    0.0000 </r>
       <r>    5.7757    0.0000 </r>
       <r>    6.2042    0.0000 </r>
       <r>    6.3104    0.0000 </r>
       <r>    7.3903    0.0000 </r>
       <r>    7.5803    0.0000 </r>
       <r>    7.5811    0.0000 </r>
       <r>    7.6334    0.0000 </r>
      </set>
     </set>
    </set>
   </array>
  </eigenvalues>
  <separator name="orbital magnetization" >
   <v name="MAGDIPOLOUT">      0.00000000      0.00000000      0.00000000</v>
  </separator>
  <dos>
   <i name="efermi">     -0.30682620 </i>
   <total>
    <array>
     <dimension dim="1">gridpoints</dimension>
     <dimension dim="2">spin</dimension>
     <field>energy</field>
     <field>total</field>
     <field>integrated</field>
     <set>
      <set comment="spin 1">
       <r>   -21.1795     0.0000     0.0000 </r>
       <r>   -21.0783     0.0000     0.0000 </r>
       <r>   -20.9771     0.0000     0.0000 </r>
       <r>   -20.8759     0.0000     0.0000 </r>
       <r>   -20.7747     0.0000     0.0000 </r>
       <r>   -20.6735     0.0000     0.0000 </r>
       <r>   -20.5723     0.0000     0.0000 </r>
       <r>   -20.4711     0.0000     0.0000 </r>
       <r>   -20.3699     0.0000     0.0000 </r>
       <r>   -20.2687     0.0000     0.0000 </r>
       <r>   -20.1675     0.0000     0.0000 </r>
       <r>   -20.0663     0.0000     0.0000 </r>
       <r>   -19.9651     0.0000     0.0000 </r>
       <r>   -19.8639     0.0000     0.0000 </r>
       <r>   -19.7627     4.3550     0.4407 </r>
       <r>   -19.6615    46.6229     5.7251 </r>
       <r>   -19.5603    11.6586     8.0000 </r>
       <r>   -19.4591     0.0000     8.0000 </r>
       <r>   -19.3579     0.0000     8.0000 </r>
       <r>   -19.2567     0.0000     8.0000 </r>
       <r>   -19.1555     0.0000     8.0000 </r>
       <r>   -19.0543     0.0000     8.0000 </r>
       <r>   -18.9531     0.0000     8.0000 </r>
       <r>   -18.8519     0.0000     8.0000 </r>
       <r>   -18.7507     0.0000     8.0000 </r>
       <r>   -18.6495     0.0000     8.0000 </r>
       <r>   -18.5483     0.0000     8.0000 </r>
       <r>   -18.4471     0.0000     8.0000 </r>
       <r>   -18.3459     0.0000     8.0000 </r>
       <r>   -18.2447     0.0000     8.0000 </r>
       <r>   -18.1435     0.0000     8.0000 </r>
       <r>   -18.0423     0.0000     8.0000 </r>
       <r>   -17.9411     0.0000     8.0000 </r>
       <r>   -17.8399     0.0000     8.0000 </r>
       <r>   -17.7387     0.0000     8.0000 </r>
       <r>   -17.6375     0.0000     8.0000 </r>
       <r>   -17.5363     0.0000     8.0000 </r>
       <r>   -17.4351     0.0000     8.0000 </r>
       <r>   -17.3339     0.0000     8.0000 </r>
       <r>   -17.2327     0.0000     8.0000 </r>
       <r>   -17.1315     0.0000     8.0000 </r>
       <r>   -17.0303     0.0000     8.0000 </r>
       <r>   -16.9291     0.0000     8.0000 </r>
       <r>   -16.8279     0.0000     8.0000 </r>
       <r>   -16.7267     0.0000     8.0000 </r>
       <r>   -16.6255     0.0000     8.0000 </r>
       <r>   -16.5243     0.0000     8.0000 </r>
       <r>   -16.4231     0.0000     8.0000 </r>
       <r>   -16.3219     0.0000     8.0000 </r>
       <r>   -16.2207     0.0000     8.0000 </r>
       <r>   -16.1195     0.0000     8.0000 </r>
       <r>   -16.0183     0.0000     8.0000 </r>
       <r>   -15.9171     0.0000     8.0000 </r>
       <r>   -15.8159     0.0000     8.0000 </r>
       <r>   -15.7147     0.0000     8.0000 </r>
       <r>   -15.6135     0.0000     8.0000 </r>
       <r>   -15.5123     0.0000     8.0000 </r>
       <r>   -15.4111     0.0000     8.0000 </r>
       <r>   -15.3099     0.0000     8.0000 </r>
       <r>   -15.2087     0.0000     8.0000 </r>
       <r>   -15.1075     0.0000     8.0000 </r>
       <r>   -15.0063     0.0000     8.0000 </r>
       <r>   -14.9051     0.0000     8.0000 </r>
       <r>   -14.8039     0.0000     8.0000 </r>
       <r>   -14.7027     0.0000     8.0000 </r>
       <r>   -14.6015     0.0000     8.0000 </r>
       <r>   -14.5003     0.0000     8.0000 </r>
       <r>   -14.3991     0.0000     8.0000 </r>
       <r>   -14.2979     0.0000     8.0000 </r>
       <r>   -14.1967     0.0000     8.0000 </r>
       <r>   -14.0955     0.0000     8.0000 </r>
       <r>   -13.9943     0.0000     8.0000 </r>
       <r>   -13.8931     0.0000     8.0000 </r>
       <r>   -13.7919     0.0000     8.0000 </r>
       <r>   -13.6907     0.0000     8.0000 </r>
       <r>   -13.5895     0.0000     8.0000 </r>
       <r>   -13.4883     0.0000     8.0000 </r>
       <r>   -13.3871     0.0000     8.0000 </r>
       <r>   -13.2859     0.0000     8.0000 </r>
       <r>   -13.1847     0.0000     8.0000 </r>
       <r>   -13.0835     0.0000     8.0000 </r>
       <r>   -12.9823     0.0000     8.0000 </r>
       <r>   -12.8811     0.0000     8.0000 </r>
       <r>   -12.7799     0.0000     8.0000 </r>
       <r>   -12.6787     0.0000     8.0000 </r>
       <r>   -12.5775     4.5813     8.4636 </r>
       <r>   -12.4763    44.1668    14.2233 </r>
       <r>   -12.3751    10.3391    15.9998 </r>
       <r>   -12.2739     0.0000    16.0000 </r>
       <r>   -12.1726     0.0000    16.0000 </r>
       <r>   -12.0714     0.0000    16.0000 </r>
       <r>   -11.9702     0.0000    16.0000 </r>
       <r>   -11.8690     0.0000    16.0000 </r>
       <r>   -11.7678     0.0000    16.0000 </r>
       <r>   -11.6666     0.0000    16.0000 </r>
       <r>   -11.5654     0.0000    16.0000 </r>
       <r>   -11.4642     0.0000    16.0000 </r>
       <r>   -11.3630     0.0000    16.0000 </r>
       <r>   -11.2618     0.0000    16.0000 </r>
       <r>   -11.1606     0.0000    16.0000 </r>
       <r>   -11.0594     0.0000    16.0000 </r>
       <r>   -10.9582     0.0000    16.0000 </r>
       <r>   -10.8570     0.0000    16.0000 </r>
       <r>   -10.7558     0.0000    16.0000 </r>
       <r>   -10.6546     0.0000    16.0000 </r>
       <r>   -10.5534     0.0000    16.0000 </r>
       <r>   -10.4522     0.0000    16.0000 </r>
       <r>   -10.3510     0.0000    16.0000 </r>
       <r>   -10.2498     0.0000    16.0000 </r>
       <r>   -10.1486     0.0000    16.0000 </r>
       <r>   -10.0474     0.0000    16.0000 </r>
       <r>    -9.9462     0.0000    16.0000 </r>
       <r>    -9.8450     0.0000    16.0000 </r>
       <r>    -9.7438     0.0000    16.0000 </r>
       <r>    -9.6426     0.0000    16.0000 </r>
       <r>    -9.5414     0.0000    16.0000 </r>
       <r>    -9.4402     0.0000    16.0000 </r>
       <r>    -9.3390     0.0000    16.0000 </r>
       <r>    -9.2378     0.0000    16.0000 </r>
       <r>    -9.1366     0.0000    16.0000 </r>
       <r>    -9.0354     0.0000    16.0000 </r>
       <r>    -8.9342     0.0000    16.0000 </r>
       <r>    -8.8330     0.0000    16.0000 </r>
       <r>    -8.7318     0.0000    16.0000 </r>
       <r>    -8.6306     0.0000    16.0000 </r>
       <r>    -8.5294     0.0000    16.0000 </r>
       <r>    -8.4282     0.0000    16.0000 </r>
       <r>    -8.3270     0.0000    16.0000 </r>
       <r>    -8.2258     0.0000    16.0000 </r>
       <r>    -8.1246     0.0000    16.0000 </r>
       <r>    -8.0234     0.0000    16.0000 </r>
       <r>    -7.9222     0.0000    16.0000 </r>
       <r>    -7.8210     0.0000    16.0000 </r>
       <r>    -7.7198     0.0000    16.0000 </r>
       <r>    -7.6186     0.0000    16.0000 </r>
       <r>    -7.5174     0.0000    16.0000 </r>
       <r>    -7.4162     0.0000    16.0000 </r>
       <r>    -7.3150     0.0000    16.0000 </r>
       <r>    -7.2138     0.0000    16.0000 </r>
       <r>    -7.1126     0.0000    16.0000 </r>
       <r>    -7.0114     1.5330    16.1551 </r>
       <r>    -6.9102    19.0515    18.2880 </r>
       <r>    -6.8090    31.7009    22.2883 </r>
       <r>    -6.7078    22.1105    25.0643 </r>
       <r>    -6.6066    16.6556    27.3789 </r>
       <r>    -6.5054    10.8818    28.9146 </r>
       <r>    -6.4042    19.2422    31.4541 </r>
       <r>    -6.3030    14.2627    33.6435 </r>
       <r>    -6.2018    32.7581    37.4154 </r>
       <r>    -6.1006    16.6909    39.7759 </r>
       <r>    -5.9994     0.4610    40.0000 </r>
       <r>    -5.8982     0.0000    40.0000 </r>
       <r>    -5.7970     0.0000    40.0000 </r>
       <r>    -5.6958     0.0000    40.0000 </r>
       <r>    -5.5946     0.0000    40.0000 </r>
       <r>    -5.4934     0.0000    40.0000 </r>
       <r>    -5.3922     0.0000    40.0000 </r>
       <r>    -5.2910     0.0000    40.0000 </r>
       <r>    -5.1898     0.0000    40.0000 </r>
       <r>    -5.0886     0.0000    40.0000 </r>
       <r>    -4.9874     0.0000    40.0000 </r>
       <r>    -4.8862     0.0000    40.0000 </r>
       <r>    -4.7850     0.0000    40.0000 </r>
       <r>    -4.6838     0.0000    40.0000 </r>
       <r>    -4.5826     0.0000    40.0000 </r>
       <r>    -4.4814     0.0000    40.0000 </r>
       <r>    -4.3802     0.0000    40.0000 </r>
       <r>    -4.2790     0.0000    40.0000 </r>
       <r>    -4.1778     0.0000    40.0000 </r>
       <r>    -4.0766     0.0000    40.0000 </r>
       <r>    -3.9754     0.0000    40.0000 </r>
       <r>    -3.8742     0.0000    40.0000 </r>
       <r>    -3.7730     0.0000    40.0000 </r>
       <r>    -3.6718     0.0000    40.0000 </r>
       <r>    -3.5706     0.0000    40.0000 </r>
       <r>    -3.4694     0.0000    40.0000 </r>
       <r>    -3.3682     0.0000    40.0000 </r>
       <r>    -3.2670     0.0000    40.0000 </r>
       <r>    -3.1658     0.0000    40.0000 </r>
       <r>    -3.0646     0.0000    40.0000 </r>
       <r>    -2.9634     0.0000    40.0000 </r>
       <r>    -2.8622     0.0000    40.0000 </r>
       <r>    -2.7610     0.0000    40.0000 </r>
       <r>    -2.6598     0.0000    40.0000 </r>
       <r>    -2.5585     0.0000    40.0000 </r>
       <r>    -2.4573     0.0000    40.0000 </r>
       <r>    -2.3561     0.0000    40.0000 </r>
       <r>    -2.2549     0.0000    40.0000 </r>
       <r>    -2.1537     0.0000    40.0000 </r>
       <r>    -2.0525     0.0000    40.0000 </r>
       <r>    -1.9513     0.0000    40.0000 </r>
       <r>    -1.8501     0.0000    40.0000 </r>
       <r>    -1.7489     0.0000    40.0000 </r>
       <r>    -1.6477     0.0000    40.0000 </r>
       <r>    -1.5465     0.0037    40.0004 </r>
       <r>    -1.4453     1.1108    40.1324 </r>
       <r>    -1.3441     5.5511    40.7218 </r>
       <r>    -1.2429     6.6024    41.6415 </r>
       <r>    -1.1417    13.2654    43.5158 </r>
       <r>    -1.0405    29.7525    47.0777 </r>
       <r>    -0.9393    16.9929    49.3997 </r>
       <r>    -0.8381    20.2341    51.6345 </r>
       <r>    -0.7369    18.1265    54.0478 </r>
       <r>    -0.6357    18.3206    56.6007 </r>
       <r>    -0.5345    41.4827    61.3582 </r>
       <r>    -0.4333    13.8906    63.8325 </r>
       <r>    -0.3321     0.4611    64.0000 </r>
       <r>    -0.2309     0.0000    64.0000 </r>
       <r>    -0.1297     0.0000    64.0000 </r>
       <r>    -0.0285     0.0000    64.0000 </r>
       <r>     0.0727     0.0000    64.0000 </r>
       <r>     0.1739     0.0000    64.0000 </r>
       <r>     0.2751     0.0000    64.0000 </r>
       <r>     0.3763     0.0000    64.0000 </r>
       <r>     0.4775     0.0000    64.0000 </r>
       <r>     0.5787     0.0000    64.0000 </r>
       <r>     0.6799     0.0000    64.0000 </r>
       <r>     0.7811     0.0000    64.0000 </r>
       <r>     0.8823     0.0000    64.0000 </r>
       <r>     0.9835     0.0000    64.0000 </r>
       <r>     1.0847     0.0000    64.0000 </r>
       <r>     1.1859     0.0000    64.0000 </r>
       <r>     1.2871     0.0000    64.0000 </r>
       <r>     1.3883     0.0000    64.0000 </r>
       <r>     1.4895     0.0000    64.0000 </r>
       <r>     1.5907     0.0000    64.0000 </r>
       <r>     1.6919     0.0000    64.0000 </r>
       <r>     1.7931     0.0000    64.0000 </r>
       <r>     1.8943     0.0000    64.0000 </r>
       <r>     1.9955     0.0000    64.0000 </r>
       <r>     2.0967     0.0000    64.0000 </r>
       <r>     2.1979     0.0000    64.0000 </r>
       <r>     2.2991     0.0000    64.0000 </r>
       <r>     2.4003     0.0000    64.0000 </r>
       <r>     2.5015     0.0000    64.0000 </r>
       <r>     2.6027     0.0000    64.0000 </r>
       <r>     2.7039     0.0000    64.0000 </r>
       <r>     2.8051     0.0000    64.0000 </r>
       <r>     2.9063     0.0000    64.0000 </r>
       <r>     3.0075     0.0000    64.0000 </r>
       <r>     3.1087     0.0000    64.0000 </r>
       <r>     3.2099     0.0000    64.0000 </r>
       <r>     3.3111     0.0000    64.0000 </r>
       <r>     3.4123     0.0000    64.0000 </r>
       <r>     3.5135     0.0000    64.0000 </r>
       <r>     3.6147     0.0000    64.0000 </r>
       <r>     3.7159     0.0000    64.0000 </r>
       <r>     3.8171     0.0000    64.0000 </r>
       <r>     3.9183     0.0000    64.0000 </r>
       <r>     4.0195     0.0000    64.0000 </r>
       <r>     4.1207     0.0000    64.0000 </r>
       <r>     4.2219     0.0000    64.0000 </r>
       <r>     4.3231     0.0000    64.0000 </r>
       <r>     4.4243     0.0000    64.0000 </r>
       <r>     4.5255     0.0000    64.0000 </r>
       <r>     4.6267     0.0000    64.0000 </r>
       <r>     4.7279     0.0000    64.0000 </r>
       <r>     4.8291     0.0659    64.0067 </r>
       <r>     4.9303     0.0000    64.0067 </r>
       <r>     5.0315     0.3467    64.0418 </r>
       <r>     5.1327     0.3953    64.1000 </r>
       <r>     5.2339     1.5835    64.2603 </r>
       <r>     5.3351     0.6397    64.3514 </r>
       <r>     5.4363     2.8264    64.7327 </r>
       <r>     5.5375     0.0680    64.7735 </r>
       <r>     5.6387     3.7302    65.2442 </r>
       <r>     5.7399     3.8688    65.6515 </r>
       <r>     5.8411     5.9971    66.3602 </r>
       <r>     5.9423     8.9054    67.4946 </r>
       <r>     6.0435     6.5824    68.2995 </r>
       <r>     6.1447     9.0550    69.7965 </r>
       <r>     6.2459     6.2798    70.7422 </r>
       <r>     6.3471     9.3818    71.8161 </r>
       <r>     6.4483     6.0597    72.6400 </r>
       <r>     6.5495     8.6459    73.6750 </r>
       <r>     6.6507     6.8646    74.6414 </r>
       <r>     6.7519     5.4843    75.3817 </r>
       <r>     6.8531    10.9736    76.6839 </r>
       <r>     6.9543     9.4115    77.8191 </r>
       <r>     7.0556     3.1554    78.2527 </r>
       <r>     7.1568     1.7646    78.4852 </r>
       <r>     7.2580     1.9762    78.8133 </r>
       <r>     7.3592     1.1239    78.9271 </r>
       <r>     7.4604     0.9285    79.0673 </r>
       <r>     7.5616     0.8129    79.2023 </r>
       <r>     7.6628     2.3903    79.5286 </r>
       <r>     7.7640     2.7512    79.9184 </r>
       <r>     7.8652     0.7905    80.0000 </r>
       <r>     7.9664     0.0000    80.0000 </r>
       <r>     8.0676     0.0000    80.0000 </r>
       <r>     8.1688     0.0000    80.0000 </r>
       <r>     8.2700     0.0000    80.0000 </r>
       <r>     8.3712     0.0000    80.0000 </r>
       <r>     8.4724     0.0000    80.0000 </r>
       <r>     8.5736     0.0000    80.0000 </r>
       <r>     8.6748     0.0000    80.0000 </r>
       <r>     8.7760     0.0000    80.0000 </r>
       <r>     8.8772     0.0000    80.0000 </r>
       <r>     8.9784     0.0000    80.0000 </r>
       <r>     9.0796     0.0000    80.0000 </r>
       <r>     9.1808     0.0000    80.0000 </r>
      </set>
     </set>
    </array>
   </total>
  </dos>
 </calculation>
 <structure name="finalpos" >
  <crystal>
   <varray name="basis" >
    <v>      16.57479336       0.00000000       0.00000000 </v>
    <v>       0.00000000       4.14369834       0.00000000 </v>
    <v>       0.00000000       0.00000000       4.14369834 </v>
   </varray>
   <i name="volume">    284.59311253 </i>
   <varray name="rec_basis" >
    <v>       0.06033258      -0.00000000       0.00000000 </v>
    <v>       0.00000000       0.24133031       0.00000000 </v>
    <v>      -0.00000000      -0.00000000       0.24133031 </v>
   </varray>
  </crystal>
  <varray name="positions" >
   <v>       0.00000000       0.00000000       0.00000000 </v>
   <v>       0.25000000       0.00000000       0.00000000 </v>
   <v>       0.50000000       0.00000000       0.00000000 </v>
   <v>       0.75000000       0.00000000       0.00000000 </v>
   <v>       0.12558531       0.50058531       0.50000000 </v>
   <v>       0.37500000       0.50000000       0.50000000 </v>
   <v>       0.62500000       0.50000000       0.50000000 </v>
   <v>       0.87500000       0.50000000       0.50000000 </v>
  </varray>
 </structure>
</modeling>
