phonopy:
  version: "2.33.3"
  frequency_unit_conversion_factor: 15.633302
  symmetry_tolerance: 1.00000e-05
  configuration:
    force_sets: "READ"
    force_constants: "WRITE"
    fc_format: "HDF5"
    fc_symmetry: ".FALSE."
    include_fc: ".TRUE."
    primitive_axes: "1 0 0 0 1 0 0 0 1"
    dim: "1 1 0 1 -1 1 -1 -1 -2"

physical_unit:
  atomic_mass: "AMU"
  length: "angstrom"
  force: "eV/angstrom"
  force_constants: "eV/angstrom^2"

space_group:
  type: "Fd-3m"
  number: 227
  Hall_symbol: "F 4d 2 3 -1d"

primitive_matrix:
- [  1.000000000000000,  0.000000000000000,  0.000000000000000 ]
- [  0.000000000000000,  1.000000000000000,  0.000000000000000 ]
- [  0.000000000000000,  0.000000000000000,  1.000000000000000 ]

supercell_matrix:
- [   1,   1,   0 ]
- [   1,  -1,   1 ]
- [  -1,  -1,  -2 ]

primitive_cell:
  lattice:
  - [     0.000000000000000,     2.721851186500000,     2.721851186500000 ] # a
  - [     2.721851186499999,     0.000000000000000,     2.721851186500000 ] # b
  - [     2.721851186500000,     2.721851186500000,     0.000000000000000 ] # c
  points:
  - symbol: Si # 1
    coordinates: [  0.000000000000000,  0.000000000000000,  0.000000000000000 ]
    mass: 28.085500
  - symbol: Si # 2
    coordinates: [  0.250000000000000,  0.250000000000000,  0.250000000000000 ]
    mass: 28.085500
  reciprocal_lattice: # without 2pi
  - [    -0.183698507280607,     0.183698507280607,     0.183698507280607 ] # a*
  - [     0.183698507280607,    -0.183698507280607,     0.183698507280607 ] # b*
  - [     0.183698507280607,     0.183698507280607,    -0.183698507280607 ] # c*

unit_cell:
  lattice:
  - [     0.000000000000000,     2.721851186500000,     2.721851186500000 ] # a
  - [     2.721851186500000,     0.000000000000000,     2.721851186500000 ] # b
  - [     2.721851186500000,     2.721851186500000,     0.000000000000000 ] # c
  points:
  - symbol: Si # 1
    coordinates: [  0.000000000000000,  0.000000000000000,  1.000000000000000 ]
    mass: 28.085500
    reduced_to: 1
  - symbol: Si # 2
    coordinates: [  0.250000000000000,  0.250000000000000,  0.250000000000000 ]
    mass: 28.085500
    reduced_to: 2

supercell:
  lattice:
  - [    -0.000000000000000,     0.000000000000000,     5.443702373000000 ] # a
  - [    -5.443702372999999,     0.000000000000000,    -0.000000000000000 ] # b
  - [    -2.721851186500001,    -5.443702373000000,     2.721851186499999 ] # c
  points:
  - symbol: Si # 1
    coordinates: [  0.250000000000000,  0.750000000000000,  0.500000000000000 ]
    mass: 28.085500
    reduced_to: 1
  - symbol: Si # 2
    coordinates: [  0.000000000000000,  0.000000000000000,  0.000000000000000 ]
    mass: 28.085500
    reduced_to: 1
  - symbol: Si # 3
    coordinates: [  0.750000000000000,  0.250000000000000,  0.500000000000000 ]
    mass: 28.085500
    reduced_to: 1
  - symbol: Si # 4
    coordinates: [  0.500000000000000,  0.500000000000000,  0.000000000000000 ]
    mass: 28.085500
    reduced_to: 1
  - symbol: Si # 5
    coordinates: [  0.375000000000000,  0.875000000000000,  0.750000000000000 ]
    mass: 28.085500
    reduced_to: 5
  - symbol: Si # 6
    coordinates: [  0.125000000000000,  0.125000000000000,  0.250000000000000 ]
    mass: 28.085500
    reduced_to: 5
  - symbol: Si # 7
    coordinates: [  0.875000000000000,  0.375000000000000,  0.750000000000000 ]
    mass: 28.085500
    reduced_to: 5
  - symbol: Si # 8
    coordinates: [  0.625000000000000,  0.625000000000000,  0.250000000000000 ]
    mass: 28.085500
    reduced_to: 5

force_constants:
  format: "compact"
  shape: [ 2, 8 ]
  elements:
  - # (1, 1)
    - [    13.025433600611095,     0.000000000000018,    -0.000000000000002 ]
    - [    -0.000000000000001,    13.528002759606979,    -0.000000000000000 ]
    - [     0.000000000000001,     0.000000000000001,    13.025433600611088 ]
  - # (1, 2)
    - [     0.404874322467328,    -0.000000000000001,     0.406282779069428 ]
    - [    -0.000000000000000,    -0.915823185873434,    -0.000000000000000 ]
    - [    -0.406282779069428,    -0.000000000000000,     0.404874322467328 ]
  - # (1, 3)
    - [    -0.446344796185083,     0.000000000000002,     0.000000000000000 ]
    - [     0.000000000000001,     1.690187726728704,     0.000000000000000 ]
    - [    -0.000000000000000,     0.000000000000000,    -0.446344796185083 ]
  - # (1, 4)
    - [     0.404874322467327,    -0.000000000000001,    -0.406282779069428 ]
    - [    -0.000000000000000,    -0.915823185873434,    -0.000000000000000 ]
    - [     0.406282779069428,    -0.000000000000000,     0.404874322467327 ]
  - # (1, 5)
    - [    -3.347209056153953,    -2.215858942047630,     2.413588490181881 ]
    - [    -2.215748561916062,    -3.346636028647204,     2.215748561916061 ]
    - [     2.413588490181875,     2.215858942047623,    -3.347209056153946 ]
  - # (1, 6)
    - [    -3.347209056153945,     2.215858942047620,    -2.413588490181874 ]
    - [     2.215748561916062,    -3.346636028647205,     2.215748561916063 ]
    - [    -2.413588490181874,     2.215858942047623,    -3.347209056153947 ]
  - # (1, 7)
    - [    -3.347209056153945,     2.215858942047621,     2.413588490181875 ]
    - [     2.215748561916062,    -3.346636028647205,    -2.215748561916063 ]
    - [     2.413588490181874,    -2.215858942047623,    -3.347209056153947 ]
  - # (1, 8)
    - [    -3.347209056153952,    -2.215858942047629,    -2.413588490181880 ]
    - [    -2.215748561916060,    -3.346636028647204,    -2.215748561916062 ]
    - [    -2.413588490181876,    -2.215858942047624,    -3.347209056153948 ]
  - # (2, 1)
    - [    -3.347209056153945,    -2.215858942047620,     2.413588490181875 ]
    - [    -2.215748561916061,    -3.346636028647203,     2.215748561916062 ]
    - [     2.413588490181874,     2.215858942047623,    -3.347209056153947 ]
  - # (2, 2)
    - [    -3.347209056153945,    -2.215858942047617,    -2.413588490181874 ]
    - [    -2.215748561916060,    -3.346636028647202,    -2.215748561916061 ]
    - [    -2.413588490181874,    -2.215858942047621,    -3.347209056153947 ]
  - # (2, 3)
    - [    -3.347209056153953,     2.215858942047630,     2.413588490181881 ]
    - [     2.215748561916063,    -3.346636028647206,    -2.215748561916062 ]
    - [     2.413588490181875,    -2.215858942047624,    -3.347209056153946 ]
  - # (2, 4)
    - [    -3.347209056153952,     2.215858942047632,    -2.413588490181880 ]
    - [     2.215748561916063,    -3.346636028647207,     2.215748561916064 ]
    - [    -2.413588490181876,     2.215858942047626,    -3.347209056153948 ]
  - # (2, 5)
    - [    13.025433600611095,    -0.000000000000026,    -0.000000000000002 ]
    - [    -0.000000000000007,    13.528002759606979,    -0.000000000000003 ]
    - [     0.000000000000001,    -0.000000000000004,    13.025433600611088 ]
  - # (2, 6)
    - [     0.404874322467327,     0.000000000000001,    -0.406282779069428 ]
    - [     0.000000000000000,    -0.915823185873434,     0.000000000000000 ]
    - [     0.406282779069428,    -0.000000000000000,     0.404874322467327 ]
  - # (2, 7)
    - [    -0.446344796185083,    -0.000000000000002,     0.000000000000000 ]
    - [    -0.000000000000000,     1.690187726728704,    -0.000000000000000 ]
    - [    -0.000000000000000,     0.000000000000000,    -0.446344796185083 ]
  - # (2, 8)
    - [     0.404874322467328,     0.000000000000001,     0.406282779069428 ]
    - [     0.000000000000000,    -0.915823185873434,     0.000000000000000 ]
    - [    -0.406282779069428,     0.000000000000000,     0.404874322467328 ]