8    
2    

1    
  0.0040824829046386   0.0040824829046386   0.0081649658092773
  -0.0070606900   -0.0070606900   -0.0123769200
   0.0010426400    0.0010426400    0.0021019600
   0.0017315900    0.0017315900    0.0017701200
   0.0010591300    0.0010591300    0.0020851200
   0.0002708100    0.0002708100    0.0004171500
   0.0001719200    0.0001719200    0.0003212000
   0.0013949200    0.0013949200    0.0028201600
   0.0013896800    0.0013896800    0.0028612000

5    
  0.0040824829046386   0.0040824829046386   0.0081649658092773
   0.0001769700    0.0001769700    0.0003347300
   0.0014060100    0.0014060100    0.0028388000
   0.0014005200    0.0014005200    0.0028802500
   0.0002725800    0.0002725800    0.0004247600
  -0.0067037700   -0.0067037700   -0.0119056200
   0.0009786600    0.0009786600    0.0019677000
   0.0014744800    0.0014744800    0.0014974700
   0.0009945400    0.0009945400    0.0019619100
