<?xml version="1.0" encoding="ISO-8859-1"?>
<modeling>
 <generator>
  <i name="program" type="string">vasp </i>
  <i name="version" type="string">6.4.3  </i>
  <i name="subversion" type="string">19Mar24 (build Jun 20 2024 15:56:09) complex                          parallel </i>
  <i name="platform" type="string">LinuxNV_CrayMPICH </i>
  <i name="date" type="string">2025 01 13 </i>
  <i name="time" type="string">17:52:10 </i>
 </generator>
 <incar>
  <i type="string" name="PREC">Accurate</i>
  <i type="int" name="IBRION">    -1</i>
  <i name="EDIFF">      0.00000001</i>
  <i type="int" name="NSW">     0</i>
  <i name="ENCUT">    500.00000000</i>
  <i type="logical" name="LREAL"> F  </i>
  <i type="int" name="ISMEAR">     0</i>
  <i name="SIGMA">      0.01000000</i>
  <i type="logical" name="LWAVE"> F  </i>
  <i type="logical" name="LCHARG"> F  </i>
 </incar>
 <primitive_cell>
  <structure name="primitive_cell" >
   <crystal>
    <varray name="basis" >
     <v>      -0.00000000      -0.00000000       5.44370237 </v>
     <v>       5.44370237      -5.44370237       0.00000000 </v>
     <v>       2.72185119       2.72185119       0.00000000 </v>
    </varray>
    <i name="volume">    161.31810740 </i>
    <varray name="rec_basis" >
     <v>      -0.00000000       0.00000000       0.18369851 </v>
     <v>       0.09184925      -0.09184925      -0.00000000 </v>
     <v>       0.18369851       0.18369851       0.00000000 </v>
    </varray>
   </crystal>
   <varray name="positions" >
    <v>       0.00098191       0.00098191       0.00098191 </v>
    <v>       0.50000000       0.75000000       0.50000000 </v>
    <v>       1.00000000       0.50000000       1.00000000 </v>
    <v>       0.50000000       0.25000000       0.50000000 </v>
    <v>       0.25000000       0.00000000       0.50000000 </v>
    <v>       0.75000000       0.75000000       1.00000000 </v>
    <v>       0.25000000       0.50000000       0.50000000 </v>
    <v>       0.75000000       0.25000000       1.00000000 </v>
   </varray>
  </structure>
  <varray name="primitive_index" >
   <v type="int" >        1 </v>
   <v type="int" >        2 </v>
   <v type="int" >        3 </v>
   <v type="int" >        4 </v>
   <v type="int" >        5 </v>
   <v type="int" >        6 </v>
   <v type="int" >        7 </v>
   <v type="int" >        8 </v>
  </varray>
 </primitive_cell>
 <kpoints>
  <generation param="Gamma">
   <v type="int" name="divisions">       8        5       11 </v>
   <v name="usershift">      0.00000000       0.00000000       0.00000000 </v>
   <v name="genvec1">      0.12500000      -0.00000000      -0.00000000 </v>
   <v name="genvec2">     -0.00000000       0.20000000      -0.00000000 </v>
   <v name="genvec3">      0.00000000      -0.00000000       0.09090909 </v>
   <v name="shift">      0.00000000       0.00000000       0.00000000 </v>
  </generation>
  <varray name="kpointlist" >
   <v>       0.00000000       0.00000000       0.00000000 </v>
   <v>       0.12500000       0.00000000       0.00000000 </v>
   <v>       0.25000000       0.00000000       0.00000000 </v>
   <v>       0.37500000       0.00000000       0.00000000 </v>
   <v>       0.50000000       0.00000000       0.00000000 </v>
   <v>       0.00000000       0.20000000       0.00000000 </v>
   <v>       0.12500000       0.20000000       0.00000000 </v>
   <v>       0.12500000      -0.20000000       0.00000000 </v>
   <v>       0.25000000       0.20000000       0.00000000 </v>
   <v>       0.25000000      -0.20000000       0.00000000 </v>
   <v>       0.37500000       0.20000000       0.00000000 </v>
   <v>       0.37500000      -0.20000000       0.00000000 </v>
   <v>       0.50000000       0.20000000       0.00000000 </v>
   <v>       0.00000000       0.40000000       0.00000000 </v>
   <v>       0.12500000       0.40000000       0.00000000 </v>
   <v>       0.12500000      -0.40000000       0.00000000 </v>
   <v>       0.25000000       0.40000000       0.00000000 </v>
   <v>       0.25000000      -0.40000000       0.00000000 </v>
   <v>       0.37500000       0.40000000       0.00000000 </v>
   <v>       0.37500000      -0.40000000       0.00000000 </v>
   <v>       0.50000000       0.40000000       0.00000000 </v>
   <v>       0.00000000       0.00000000       0.09090909 </v>
   <v>       0.12500000       0.00000000       0.09090909 </v>
   <v>      -0.12500000       0.00000000       0.09090909 </v>
   <v>       0.25000000       0.00000000       0.09090909 </v>
   <v>      -0.25000000       0.00000000       0.09090909 </v>
   <v>       0.37500000       0.00000000       0.09090909 </v>
   <v>      -0.37500000       0.00000000       0.09090909 </v>
   <v>       0.50000000       0.00000000       0.09090909 </v>
   <v>       0.00000000       0.20000000       0.09090909 </v>
   <v>       0.00000000      -0.20000000       0.09090909 </v>
   <v>       0.12500000       0.20000000       0.09090909 </v>
   <v>      -0.12500000      -0.20000000       0.09090909 </v>
   <v>       0.12500000      -0.20000000      -0.09090909 </v>
   <v>      -0.12500000       0.20000000      -0.09090909 </v>
   <v>       0.25000000       0.20000000       0.09090909 </v>
   <v>      -0.25000000      -0.20000000       0.09090909 </v>
   <v>       0.25000000      -0.20000000      -0.09090909 </v>
   <v>      -0.25000000       0.20000000      -0.09090909 </v>
   <v>       0.37500000       0.20000000       0.09090909 </v>
   <v>      -0.37500000      -0.20000000       0.09090909 </v>
   <v>       0.37500000      -0.20000000      -0.09090909 </v>
   <v>      -0.37500000       0.20000000      -0.09090909 </v>
   <v>       0.50000000       0.20000000       0.09090909 </v>
   <v>       0.50000000      -0.20000000       0.09090909 </v>
   <v>       0.00000000       0.40000000       0.09090909 </v>
   <v>       0.00000000      -0.40000000       0.09090909 </v>
   <v>       0.12500000       0.40000000       0.09090909 </v>
   <v>      -0.12500000      -0.40000000       0.09090909 </v>
   <v>       0.12500000      -0.40000000      -0.09090909 </v>
   <v>      -0.12500000       0.40000000      -0.09090909 </v>
   <v>       0.25000000       0.40000000       0.09090909 </v>
   <v>      -0.25000000      -0.40000000       0.09090909 </v>
   <v>       0.25000000      -0.40000000      -0.09090909 </v>
   <v>      -0.25000000       0.40000000      -0.09090909 </v>
   <v>       0.37500000       0.40000000       0.09090909 </v>
   <v>      -0.37500000      -0.40000000       0.09090909 </v>
   <v>       0.37500000      -0.40000000      -0.09090909 </v>
   <v>      -0.37500000       0.40000000      -0.09090909 </v>
   <v>       0.50000000       0.40000000       0.09090909 </v>
   <v>       0.50000000      -0.40000000       0.09090909 </v>
   <v>       0.00000000       0.00000000       0.18181818 </v>
   <v>       0.12500000       0.00000000       0.18181818 </v>
   <v>      -0.12500000       0.00000000       0.18181818 </v>
   <v>       0.25000000       0.00000000       0.18181818 </v>
   <v>      -0.25000000       0.00000000       0.18181818 </v>
   <v>       0.37500000       0.00000000       0.18181818 </v>
   <v>      -0.37500000       0.00000000       0.18181818 </v>
   <v>       0.50000000       0.00000000       0.18181818 </v>
   <v>       0.00000000       0.20000000       0.18181818 </v>
   <v>       0.00000000      -0.20000000       0.18181818 </v>
   <v>       0.12500000       0.20000000       0.18181818 </v>
   <v>      -0.12500000      -0.20000000       0.18181818 </v>
   <v>       0.12500000      -0.20000000      -0.18181818 </v>
   <v>      -0.12500000       0.20000000      -0.18181818 </v>
   <v>       0.25000000       0.20000000       0.18181818 </v>
   <v>      -0.25000000      -0.20000000       0.18181818 </v>
   <v>       0.25000000      -0.20000000      -0.18181818 </v>
   <v>      -0.25000000       0.20000000      -0.18181818 </v>
   <v>       0.37500000       0.20000000       0.18181818 </v>
   <v>      -0.37500000      -0.20000000       0.18181818 </v>
   <v>       0.37500000      -0.20000000      -0.18181818 </v>
   <v>      -0.37500000       0.20000000      -0.18181818 </v>
   <v>       0.50000000       0.20000000       0.18181818 </v>
   <v>       0.50000000      -0.20000000       0.18181818 </v>
   <v>       0.00000000       0.40000000       0.18181818 </v>
   <v>       0.00000000      -0.40000000       0.18181818 </v>
   <v>       0.12500000       0.40000000       0.18181818 </v>
   <v>      -0.12500000      -0.40000000       0.18181818 </v>
   <v>       0.12500000      -0.40000000      -0.18181818 </v>
   <v>      -0.12500000       0.40000000      -0.18181818 </v>
   <v>       0.25000000       0.40000000       0.18181818 </v>
   <v>      -0.25000000      -0.40000000       0.18181818 </v>
   <v>       0.25000000      -0.40000000      -0.18181818 </v>
   <v>      -0.25000000       0.40000000      -0.18181818 </v>
   <v>       0.37500000       0.40000000       0.18181818 </v>
   <v>      -0.37500000      -0.40000000       0.18181818 </v>
   <v>       0.37500000      -0.40000000      -0.18181818 </v>
   <v>      -0.37500000       0.40000000      -0.18181818 </v>
   <v>       0.50000000       0.40000000       0.18181818 </v>
   <v>       0.50000000      -0.40000000       0.18181818 </v>
   <v>       0.00000000       0.00000000       0.27272727 </v>
   <v>       0.12500000       0.00000000       0.27272727 </v>
   <v>      -0.12500000       0.00000000       0.27272727 </v>
   <v>       0.25000000       0.00000000       0.27272727 </v>
   <v>      -0.25000000       0.00000000       0.27272727 </v>
   <v>       0.37500000       0.00000000       0.27272727 </v>
   <v>      -0.37500000       0.00000000       0.27272727 </v>
   <v>       0.50000000       0.00000000       0.27272727 </v>
   <v>       0.00000000       0.20000000       0.27272727 </v>
   <v>       0.00000000      -0.20000000       0.27272727 </v>
   <v>       0.12500000       0.20000000       0.27272727 </v>
   <v>      -0.12500000      -0.20000000       0.27272727 </v>
   <v>       0.12500000      -0.20000000      -0.27272727 </v>
   <v>      -0.12500000       0.20000000      -0.27272727 </v>
   <v>       0.25000000       0.20000000       0.27272727 </v>
   <v>      -0.25000000      -0.20000000       0.27272727 </v>
   <v>       0.25000000      -0.20000000      -0.27272727 </v>
   <v>      -0.25000000       0.20000000      -0.27272727 </v>
   <v>       0.37500000       0.20000000       0.27272727 </v>
   <v>      -0.37500000      -0.20000000       0.27272727 </v>
   <v>       0.37500000      -0.20000000      -0.27272727 </v>
   <v>      -0.37500000       0.20000000      -0.27272727 </v>
   <v>       0.50000000       0.20000000       0.27272727 </v>
   <v>       0.50000000      -0.20000000       0.27272727 </v>
   <v>       0.00000000       0.40000000       0.27272727 </v>
   <v>       0.00000000      -0.40000000       0.27272727 </v>
   <v>       0.12500000       0.40000000       0.27272727 </v>
   <v>      -0.12500000      -0.40000000       0.27272727 </v>
   <v>       0.12500000      -0.40000000      -0.27272727 </v>
   <v>      -0.12500000       0.40000000      -0.27272727 </v>
   <v>       0.25000000       0.40000000       0.27272727 </v>
   <v>      -0.25000000      -0.40000000       0.27272727 </v>
   <v>       0.25000000      -0.40000000      -0.27272727 </v>
   <v>      -0.25000000       0.40000000      -0.27272727 </v>
   <v>       0.37500000       0.40000000       0.27272727 </v>
   <v>      -0.37500000      -0.40000000       0.27272727 </v>
   <v>       0.37500000      -0.40000000      -0.27272727 </v>
   <v>      -0.37500000       0.40000000      -0.27272727 </v>
   <v>       0.50000000       0.40000000       0.27272727 </v>
   <v>       0.50000000      -0.40000000       0.27272727 </v>
   <v>       0.00000000       0.00000000       0.36363636 </v>
   <v>       0.12500000       0.00000000       0.36363636 </v>
   <v>      -0.12500000       0.00000000       0.36363636 </v>
   <v>       0.25000000       0.00000000       0.36363636 </v>
   <v>      -0.25000000       0.00000000       0.36363636 </v>
   <v>       0.37500000       0.00000000       0.36363636 </v>
   <v>      -0.37500000       0.00000000       0.36363636 </v>
   <v>       0.50000000       0.00000000       0.36363636 </v>
   <v>       0.00000000       0.20000000       0.36363636 </v>
   <v>       0.00000000      -0.20000000       0.36363636 </v>
   <v>       0.12500000       0.20000000       0.36363636 </v>
   <v>      -0.12500000      -0.20000000       0.36363636 </v>
   <v>       0.12500000      -0.20000000      -0.36363636 </v>
   <v>      -0.12500000       0.20000000      -0.36363636 </v>
   <v>       0.25000000       0.20000000       0.36363636 </v>
   <v>      -0.25000000      -0.20000000       0.36363636 </v>
   <v>       0.25000000      -0.20000000      -0.36363636 </v>
   <v>      -0.25000000       0.20000000      -0.36363636 </v>
   <v>       0.37500000       0.20000000       0.36363636 </v>
   <v>      -0.37500000      -0.20000000       0.36363636 </v>
   <v>       0.37500000      -0.20000000      -0.36363636 </v>
   <v>      -0.37500000       0.20000000      -0.36363636 </v>
   <v>       0.50000000       0.20000000       0.36363636 </v>
   <v>       0.50000000      -0.20000000       0.36363636 </v>
   <v>       0.00000000       0.40000000       0.36363636 </v>
   <v>       0.00000000      -0.40000000       0.36363636 </v>
   <v>       0.12500000       0.40000000       0.36363636 </v>
   <v>      -0.12500000      -0.40000000       0.36363636 </v>
   <v>       0.12500000      -0.40000000      -0.36363636 </v>
   <v>      -0.12500000       0.40000000      -0.36363636 </v>
   <v>       0.25000000       0.40000000       0.36363636 </v>
   <v>      -0.25000000      -0.40000000       0.36363636 </v>
   <v>       0.25000000      -0.40000000      -0.36363636 </v>
   <v>      -0.25000000       0.40000000      -0.36363636 </v>
   <v>       0.37500000       0.40000000       0.36363636 </v>
   <v>      -0.37500000      -0.40000000       0.36363636 </v>
   <v>       0.37500000      -0.40000000      -0.36363636 </v>
   <v>      -0.37500000       0.40000000      -0.36363636 </v>
   <v>       0.50000000       0.40000000       0.36363636 </v>
   <v>       0.50000000      -0.40000000       0.36363636 </v>
   <v>       0.00000000       0.00000000       0.45454545 </v>
   <v>       0.12500000       0.00000000       0.45454545 </v>
   <v>      -0.12500000       0.00000000       0.45454545 </v>
   <v>       0.25000000       0.00000000       0.45454545 </v>
   <v>      -0.25000000       0.00000000       0.45454545 </v>
   <v>       0.37500000       0.00000000       0.45454545 </v>
   <v>      -0.37500000       0.00000000       0.45454545 </v>
   <v>       0.50000000       0.00000000       0.45454545 </v>
   <v>       0.00000000       0.20000000       0.45454545 </v>
   <v>       0.00000000      -0.20000000       0.45454545 </v>
   <v>       0.12500000       0.20000000       0.45454545 </v>
   <v>      -0.12500000      -0.20000000       0.45454545 </v>
   <v>       0.12500000      -0.20000000      -0.45454545 </v>
   <v>      -0.12500000       0.20000000      -0.45454545 </v>
   <v>       0.25000000       0.20000000       0.45454545 </v>
   <v>      -0.25000000      -0.20000000       0.45454545 </v>
   <v>       0.25000000      -0.20000000      -0.45454545 </v>
   <v>      -0.25000000       0.20000000      -0.45454545 </v>
   <v>       0.37500000       0.20000000       0.45454545 </v>
   <v>      -0.37500000      -0.20000000       0.45454545 </v>
   <v>       0.37500000      -0.20000000      -0.45454545 </v>
   <v>      -0.37500000       0.20000000      -0.45454545 </v>
   <v>       0.50000000       0.20000000       0.45454545 </v>
   <v>       0.50000000      -0.20000000       0.45454545 </v>
   <v>       0.00000000       0.40000000       0.45454545 </v>
   <v>       0.00000000      -0.40000000       0.45454545 </v>
   <v>       0.12500000       0.40000000       0.45454545 </v>
   <v>      -0.12500000      -0.40000000       0.45454545 </v>
   <v>       0.12500000      -0.40000000      -0.45454545 </v>
   <v>      -0.12500000       0.40000000      -0.45454545 </v>
   <v>       0.25000000       0.40000000       0.45454545 </v>
   <v>      -0.25000000      -0.40000000       0.45454545 </v>
   <v>       0.25000000      -0.40000000      -0.45454545 </v>
   <v>      -0.25000000       0.40000000      -0.45454545 </v>
   <v>       0.37500000       0.40000000       0.45454545 </v>
   <v>      -0.37500000      -0.40000000       0.45454545 </v>
   <v>       0.37500000      -0.40000000      -0.45454545 </v>
   <v>      -0.37500000       0.40000000      -0.45454545 </v>
   <v>       0.50000000       0.40000000       0.45454545 </v>
   <v>       0.50000000      -0.40000000       0.45454545 </v>
  </varray>
  <varray name="weights" >
   <v>       0.00227273 </v>
   <v>       0.00454545 </v>
   <v>       0.00454545 </v>
   <v>       0.00454545 </v>
   <v>       0.00227273 </v>
   <v>       0.00454545 </v>
   <v>       0.00454545 </v>
   <v>       0.00454545 </v>
   <v>       0.00454545 </v>
   <v>       0.00454545 </v>
   <v>       0.00454545 </v>
   <v>       0.00454545 </v>
   <v>       0.00454545 </v>
   <v>       0.00454545 </v>
   <v>       0.00454545 </v>
   <v>       0.00454545 </v>
   <v>       0.00454545 </v>
   <v>       0.00454545 </v>
   <v>       0.00454545 </v>
   <v>       0.00454545 </v>
   <v>       0.00454545 </v>
   <v>       0.00454545 </v>
   <v>       0.00454545 </v>
   <v>       0.00454545 </v>
   <v>       0.00454545 </v>
   <v>       0.00454545 </v>
   <v>       0.00454545 </v>
   <v>       0.00454545 </v>
   <v>       0.00454545 </v>
   <v>       0.00454545 </v>
   <v>       0.00454545 </v>
   <v>       0.00454545 </v>
   <v>       0.00454545 </v>
   <v>       0.00454545 </v>
   <v>       0.00454545 </v>
   <v>       0.00454545 </v>
   <v>       0.00454545 </v>
   <v>       0.00454545 </v>
   <v>       0.00454545 </v>
   <v>       0.00454545 </v>
   <v>       0.00454545 </v>
   <v>       0.00454545 </v>
   <v>       0.00454545 </v>
   <v>       0.00454545 </v>
   <v>       0.00454545 </v>
   <v>       0.00454545 </v>
   <v>       0.00454545 </v>
   <v>       0.00454545 </v>
   <v>       0.00454545 </v>
   <v>       0.00454545 </v>
   <v>       0.00454545 </v>
   <v>       0.00454545 </v>
   <v>       0.00454545 </v>
   <v>       0.00454545 </v>
   <v>       0.00454545 </v>
   <v>       0.00454545 </v>
   <v>       0.00454545 </v>
   <v>       0.00454545 </v>
   <v>       0.00454545 </v>
   <v>       0.00454545 </v>
   <v>       0.00454545 </v>
   <v>       0.00454545 </v>
   <v>       0.00454545 </v>
   <v>       0.00454545 </v>
   <v>       0.00454545 </v>
   <v>       0.00454545 </v>
   <v>       0.00454545 </v>
   <v>       0.00454545 </v>
   <v>       0.00454545 </v>
   <v>       0.00454545 </v>
   <v>       0.00454545 </v>
   <v>       0.00454545 </v>
   <v>       0.00454545 </v>
   <v>       0.00454545 </v>
   <v>       0.00454545 </v>
   <v>       0.00454545 </v>
   <v>       0.00454545 </v>
   <v>       0.00454545 </v>
   <v>       0.00454545 </v>
   <v>       0.00454545 </v>
   <v>       0.00454545 </v>
   <v>       0.00454545 </v>
   <v>       0.00454545 </v>
   <v>       0.00454545 </v>
   <v>       0.00454545 </v>
   <v>       0.00454545 </v>
   <v>       0.00454545 </v>
   <v>       0.00454545 </v>
   <v>       0.00454545 </v>
   <v>       0.00454545 </v>
   <v>       0.00454545 </v>
   <v>       0.00454545 </v>
   <v>       0.00454545 </v>
   <v>       0.00454545 </v>
   <v>       0.00454545 </v>
   <v>       0.00454545 </v>
   <v>       0.00454545 </v>
   <v>       0.00454545 </v>
   <v>       0.00454545 </v>
   <v>       0.00454545 </v>
   <v>       0.00454545 </v>
   <v>       0.00454545 </v>
   <v>       0.00454545 </v>
   <v>       0.00454545 </v>
   <v>       0.00454545 </v>
   <v>       0.00454545 </v>
   <v>       0.00454545 </v>
   <v>       0.00454545 </v>
   <v>       0.00454545 </v>
   <v>       0.00454545 </v>
   <v>       0.00454545 </v>
   <v>       0.00454545 </v>
   <v>       0.00454545 </v>
   <v>       0.00454545 </v>
   <v>       0.00454545 </v>
   <v>       0.00454545 </v>
   <v>       0.00454545 </v>
   <v>       0.00454545 </v>
   <v>       0.00454545 </v>
   <v>       0.00454545 </v>
   <v>       0.00454545 </v>
   <v>       0.00454545 </v>
   <v>       0.00454545 </v>
   <v>       0.00454545 </v>
   <v>       0.00454545 </v>
   <v>       0.00454545 </v>
   <v>       0.00454545 </v>
   <v>       0.00454545 </v>
   <v>       0.00454545 </v>
   <v>       0.00454545 </v>
   <v>       0.00454545 </v>
   <v>       0.00454545 </v>
   <v>       0.00454545 </v>
   <v>       0.00454545 </v>
   <v>       0.00454545 </v>
   <v>       0.00454545 </v>
   <v>       0.00454545 </v>
   <v>       0.00454545 </v>
   <v>       0.00454545 </v>
   <v>       0.00454545 </v>
   <v>       0.00454545 </v>
   <v>       0.00454545 </v>
   <v>       0.00454545 </v>
   <v>       0.00454545 </v>
   <v>       0.00454545 </v>
   <v>       0.00454545 </v>
   <v>       0.00454545 </v>
   <v>       0.00454545 </v>
   <v>       0.00454545 </v>
   <v>       0.00454545 </v>
   <v>       0.00454545 </v>
   <v>       0.00454545 </v>
   <v>       0.00454545 </v>
   <v>       0.00454545 </v>
   <v>       0.00454545 </v>
   <v>       0.00454545 </v>
   <v>       0.00454545 </v>
   <v>       0.00454545 </v>
   <v>       0.00454545 </v>
   <v>       0.00454545 </v>
   <v>       0.00454545 </v>
   <v>       0.00454545 </v>
   <v>       0.00454545 </v>
   <v>       0.00454545 </v>
   <v>       0.00454545 </v>
   <v>       0.00454545 </v>
   <v>       0.00454545 </v>
   <v>       0.00454545 </v>
   <v>       0.00454545 </v>
   <v>       0.00454545 </v>
   <v>       0.00454545 </v>
   <v>       0.00454545 </v>
   <v>       0.00454545 </v>
   <v>       0.00454545 </v>
   <v>       0.00454545 </v>
   <v>       0.00454545 </v>
   <v>       0.00454545 </v>
   <v>       0.00454545 </v>
   <v>       0.00454545 </v>
   <v>       0.00454545 </v>
   <v>       0.00454545 </v>
   <v>       0.00454545 </v>
   <v>       0.00454545 </v>
   <v>       0.00454545 </v>
   <v>       0.00454545 </v>
   <v>       0.00454545 </v>
   <v>       0.00454545 </v>
   <v>       0.00454545 </v>
   <v>       0.00454545 </v>
   <v>       0.00454545 </v>
   <v>       0.00454545 </v>
   <v>       0.00454545 </v>
   <v>       0.00454545 </v>
   <v>       0.00454545 </v>
   <v>       0.00454545 </v>
   <v>       0.00454545 </v>
   <v>       0.00454545 </v>
   <v>       0.00454545 </v>
   <v>       0.00454545 </v>
   <v>       0.00454545 </v>
   <v>       0.00454545 </v>
   <v>       0.00454545 </v>
   <v>       0.00454545 </v>
   <v>       0.00454545 </v>
   <v>       0.00454545 </v>
   <v>       0.00454545 </v>
   <v>       0.00454545 </v>
   <v>       0.00454545 </v>
   <v>       0.00454545 </v>
   <v>       0.00454545 </v>
   <v>       0.00454545 </v>
   <v>       0.00454545 </v>
   <v>       0.00454545 </v>
   <v>       0.00454545 </v>
   <v>       0.00454545 </v>
   <v>       0.00454545 </v>
   <v>       0.00454545 </v>
   <v>       0.00454545 </v>
   <v>       0.00454545 </v>
   <v>       0.00454545 </v>
   <v>       0.00454545 </v>
  </varray>
 </kpoints>
 <parameters>
  <separator name="general" >
   <i type="string" name="SYSTEM">unknown system</i>
   <i type="logical" name="LCOMPAT"> F  </i>
  </separator>
  <separator name="electronic" >
   <i type="string" name="PREC">accura</i>
   <i name="ENMAX">    500.00000000</i>
   <i name="ENAUG">    322.06900000</i>
   <i name="EDIFF">      0.00000001</i>
   <i type="int" name="IALGO">    38</i>
   <i type="int" name="IWAVPR">    10</i>
   <i type="int" name="NBANDS">    24</i>
   <i type="int" name="NBANDSLOW">    -1</i>
   <i type="int" name="NBANDSHIGH">    -1</i>
   <i name="NELECT">     32.00000000</i>
   <i type="int" name="TURBO">     0</i>
   <i type="int" name="IRESTART">     0</i>
   <i type="int" name="NREBOOT">     0</i>
   <i type="int" name="NMIN">     0</i>
   <i name="EREF">      0.00000000</i>
   <separator name="electronic smearing" >
    <i type="int" name="ISMEAR">     0</i>
    <i name="SIGMA">      0.01000000</i>
    <i name="KSPACING">      0.50000000</i>
    <i type="logical" name="KGAMMA"> T  </i>
    <i type="logical" name="KBLOWUP"> T  </i>
   </separator>
   <separator name="electronic projectors" >
    <i type="logical" name="LREAL"> F  </i>
    <v name="ROPT">      0.00000000</v>
    <i type="int" name="LMAXPAW">  -100</i>
    <i type="int" name="LMAXMIX">     2</i>
    <i type="logical" name="NLSPLINE"> F  </i>
   </separator>
   <separator name="electronic startup" >
    <i type="int" name="ISTART">     0</i>
    <i type="int" name="ICHARG">     2</i>
    <i type="int" name="INIWAV">     1</i>
   </separator>
   <separator name="electronic spin" >
    <i type="int" name="ISPIN">     1</i>
    <i type="logical" name="LNONCOLLINEAR"> F  </i>
    <v name="MAGMOM">      1.00000000      1.00000000      1.00000000      1.00000000      1.00000000      1.00000000      1.00000000      1.00000000</v>
    <i name="NUPDOWN">     -1.00000000</i>
    <i type="logical" name="LSORBIT"> F  </i>
    <v name="SAXIS">      0.00000000      0.00000000      1.00000000</v>
    <i type="logical" name="LSPIRAL"> F  </i>
    <v name="QSPIRAL">      0.00000000      0.00000000      0.00000000</v>
    <i type="logical" name="LZEROZ"> F  </i>
   </separator>
   <separator name="electronic exchange-correlation" >
    <i type="logical" name="LASPH"> F  </i>
   </separator>
   <separator name="electronic convergence" >
    <i type="int" name="NELM">    60</i>
    <i type="int" name="NELMDL">    -5</i>
    <i type="int" name="NELMIN">     2</i>
    <i name="ENINI">    500.00000000</i>
    <separator name="electronic convergence detail" >
     <i type="logical" name="LDIAG"> T  </i>
     <i type="logical" name="LSUBROT"> F  </i>
     <i name="WEIMIN">      0.00000000</i>
     <i name="EBREAK">      0.00000000</i>
     <i name="DEPER">      0.30000000</i>
     <i type="int" name="NRMM">     4</i>
     <i name="TIME">      0.40000000</i>
    </separator>
   </separator>
   <separator name="electronic mixer" >
    <i name="AMIX">      0.40000000</i>
    <i name="BMIX">      1.00000000</i>
    <i name="AMIN">      0.10000000</i>
    <i name="AMIX_MAG">      1.60000000</i>
    <i name="BMIX_MAG">      1.00000000</i>
    <separator name="electronic mixer details" >
     <i type="int" name="IMIX">     4</i>
     <i type="logical" name="MIXFIRST"> F  </i>
     <i type="int" name="MAXMIX">   -45</i>
     <i name="WC">    100.00000000</i>
     <i type="int" name="INIMIX">     1</i>
     <i type="int" name="MIXPRE">     1</i>
     <i type="int" name="MREMOVE">     5</i>
    </separator>
   </separator>
   <separator name="electronic dipolcorrection" >
    <i type="logical" name="LDIPOL"> F  </i>
    <i type="logical" name="LMONO"> F  </i>
    <i type="int" name="IDIPOL">     0</i>
    <i name="EPSILON">      1.00000000</i>
    <v name="DIPOL">   -100.00000000   -100.00000000   -100.00000000</v>
    <i name="EFIELD">      0.00000000</i>
    <i type="logical" name="LVACPOTAV"> F  </i>
   </separator>
  </separator>
  <separator name="grids" >
   <i type="int" name="NGX">    40</i>
   <i type="int" name="NGY">    56</i>
   <i type="int" name="NGZ">    28</i>
   <i type="int" name="NGXF">    80</i>
   <i type="int" name="NGYF">   112</i>
   <i type="int" name="NGZF">    56</i>
   <i type="logical" name="ADDGRID"> F  </i>
  </separator>
  <separator name="ionic" >
   <i type="int" name="NSW">     0</i>
   <i type="int" name="IBRION">    -1</i>
   <i type="int" name="MDALGO">     0</i>
   <i type="int" name="ISIF">     2</i>
   <i name="PSTRESS">      0.00000000</i>
   <i name="EDIFFG">      0.00000010</i>
   <i type="int" name="NFREE">     0</i>
   <i name="POTIM">      0.50000000</i>
   <i name="SMASS">     -3.00000000</i>
   <i name="SCALEE">      1.00000000</i>
  </separator>
  <separator name="ionic md" >
   <i name="TEBEG">      0.00010000</i>
   <i name="TEEND">      0.00010000</i>
   <i type="int" name="NBLOCK">     1</i>
   <i type="int" name="KBLOCK">     1</i>
   <i type="int" name="NPACO">   256</i>
   <i name="APACO">     10.00000000</i>
  </separator>
  <separator name="symmetry" >
   <i type="int" name="ISYM">     2</i>
   <i name="SYMPREC">      0.00001000</i>
  </separator>
  <separator name="dos" >
   <i type="int" name="LORBIT">     0</i>
   <v name="RWIGS">     -1.00000000</v>
   <i type="int" name="NEDOS">   301</i>
   <i name="EMIN">     10.00000000</i>
   <i name="EMAX">    -10.00000000</i>
   <i name="EFERMI">      0.00000000</i>
  </separator>
  <separator name="writing" >
   <i type="int" name="NWRITE">     2</i>
   <i type="logical" name="LWAVE"> F  </i>
   <i type="logical" name="LDOWNSAMPLE"> F  </i>
   <i type="logical" name="LCHARG"> F  </i>
   <i type="logical" name="LPARD"> F  </i>
   <i type="logical" name="LVTOT"> F  </i>
   <i type="logical" name="LVHAR"> F  </i>
   <i type="logical" name="LELF"> F  </i>
   <i type="logical" name="LOPTICS"> F  </i>
   <v name="STM">      0.00000000      0.00000000      0.00000000      0.00000000      0.00000000      0.00000000      0.00000000</v>
  </separator>
  <separator name="performance" >
   <i type="int" name="NPAR">     8</i>
   <i type="int" name="NSIM">     4</i>
   <i type="int" name="NBLK">    -1</i>
   <i type="logical" name="LPLANE"> T  </i>
   <i type="logical" name="LSCALAPACK"> T  </i>
   <i type="logical" name="LSCAAWARE"> F  </i>
   <i type="logical" name="LSCALU"> F  </i>
   <i type="logical" name="LASYNC"> F  </i>
   <i type="logical" name="LORBITALREAL"> F  </i>
  </separator>
  <separator name="miscellaneous" >
   <i type="int" name="IDIOT">     3</i>
   <i type="int" name="PHON_NSTRUCT">    -1</i>
   <i type="logical" name="LMUSIC"> F  </i>
   <v name="POMASS">     28.08500000</v>
   <v name="DARWINR">      0.00000000</v>
   <v name="DARWINV">      1.00000000</v>
   <i type="logical" name="LCORR"> T  </i>
  </separator>
  <i type="logical" name="GGA_COMPAT"> T  </i>
  <i type="logical" name="LBERRY"> F  </i>
  <i type="int" name="ICORELEVEL">     0</i>
  <i type="logical" name="LDAU"> F  </i>
  <i type="int" name="I_CONSTRAINED_M">     0</i>
  <separator name="electronic exchange-correlation" >
   <i type="string" name="GGA    ">PE</i>
   <i type="string" name="XC_C">1</i>
   <i type="int" name="VOSKOWN">     0</i>
   <i type="logical" name="LHFCALC"> F  </i>
   <i type="string" name="PRECFOCK"></i>
   <i type="logical" name="LSYMGRAD"> F  </i>
   <i type="logical" name="LHFONE"> F  </i>
   <i type="logical" name="LRHFCALC"> F  </i>
   <i type="logical" name="LTHOMAS"> F  </i>
   <i type="logical" name="LMODELHF"> F  </i>
   <i type="logical" name="LFOCKACE"> F  </i>
   <i name="ENCUT4O">     -1.00000000</i>
   <i type="int" name="EXXOEP">     0</i>
   <i type="int" name="FOURORBIT">     0</i>
   <i name="AEXX">      0.00000000</i>
   <i name="HFALPHA">      0.00000000</i>
   <i name="MCALPHA">      0.00000000</i>
   <i name="ALDAX">      1.00000000</i>
   <i name="AGGAX">      1.00000000</i>
   <i name="AMGGAX">      1.00000000</i>
   <i name="ALDAC">      1.00000000</i>
   <i name="AGGAC">      1.00000000</i>
   <i name="AMGGAC">      1.00000000</i>
   <i type="int" name="NKREDX">     1</i>
   <i type="int" name="NKREDY">     1</i>
   <i type="int" name="NKREDZ">     1</i>
   <i type="logical" name="SHIFTRED"> F  </i>
   <i type="logical" name="ODDONLY"> F  </i>
   <i type="logical" name="EVENONLY"> F  </i>
   <i type="int" name="LMAXFOCK">     0</i>
   <i type="int" name="NMAXFOCKAE">     0</i>
   <i type="logical" name="LFOCKAEDFT"> F  </i>
   <i name="HFSCREEN">      0.00000000</i>
   <i name="HFSCREENC">      0.00000000</i>
   <i type="int" name="NBANDSGWLOW">     0</i>
  </separator>
  <separator name="vdW DFT" >
   <i type="logical" name="LUSE_VDW"> F  </i>
   <i type="int" name="IVDW_NL">    -1</i>
   <i type="logical" name="LSPIN_VDW"> F  </i>
   <i name="ZAB_VDW">     -0.84910000</i>
   <i name="GAMMA_VDW">      1.39626340</i>
   <i name="ALPHA_VDW">      0.00000000</i>
   <i name="PARAM1">      0.12340000</i>
   <i name="PARAM2">      1.00000000</i>
   <i name="BPARAM">      6.30000000</i>
   <i name="CPARAM">      0.00930000</i>
  </separator>
  <separator name="model GW" >
   <i type="int" name="MODEL_GW">     0</i>
   <i name="MODEL_EPS0">     12.09885805</i>
   <i name="MODEL_ALPHA">      1.00000000</i>
  </separator>
  <separator name="linear response parameters" >
   <i type="logical" name="LEPSILON"> F  </i>
   <i type="logical" name="LRPA"> F  </i>
   <i type="logical" name="LNABLA"> F  </i>
   <i type="logical" name="LVEL"> F  </i>
   <i name="CSHIFT">      0.10000000</i>
   <i name="OMEGAMAX">     -1.00000000</i>
   <i name="DEG_THRESHOLD">      0.00200000</i>
   <i name="RTIME">     -0.10000000</i>
   <i name="WPLASMAI">      0.00000000</i>
   <v name="DFIELD">      0.00000000      0.00000000      0.00000000</v>
   <v name="WPLASMA">      0.00000000      0.00000000      0.00000000      0.00000000      0.00000000      0.00000000      0.00000000      0.00000000      0.00000000</v>
  </separator>
  <separator name="orbital magnetization" >
   <i type="logical" name="NUCIND"> F  </i>
   <v name="MAGPOS">      0.00000000      0.00000000      0.00000000</v>
   <i type="logical" name="LNICSALL"> T  </i>
   <i type="logical" name="ORBITALMAG"> F  </i>
   <i type="logical" name="LMAGBLOCH"> F  </i>
   <i type="logical" name="LCHIMAG"> F  </i>
   <i type="logical" name="LGAUGE"> T  </i>
   <i type="int" name="MAGATOM">     0</i>
   <v name="MAGDIPOL">      0.00000000      0.00000000      0.00000000</v>
   <v name="AVECCONST">      0.00000000      0.00000000      0.00000000</v>
  </separator>
  <separator name="response functions" >
   <i type="logical" name="LALL_IN_ONE"> F  </i>
   <i type="int" name="IALL_IN_ONE">    -1</i>
   <i type="int" name="NBANDS_WAVE">    -1</i>
   <i type="logical" name="LFINITE_TEMPERATURE"> F  </i>
   <i type="logical" name="LADDER"> F  </i>
   <i type="logical" name="LRPAFORCE"> F  </i>
   <i type="logical" name="LFXC"> F  </i>
   <i type="logical" name="LHARTREE"> T  </i>
   <i type="int" name="IBSE">     0</i>
   <v type="int" name="KPOINT">    -1     0     0     0</v>
   <i type="logical" name="LTCTC"> F  </i>
   <i type="logical" name="LTCTE"> F  </i>
   <i type="logical" name="LTETE"> F  </i>
   <i type="logical" name="LTRIPLET"> F  </i>
   <i type="logical" name="LFXCEPS"> F  </i>
   <i type="logical" name="LFXHEG"> F  </i>
   <i type="int" name="NATURALO">     2</i>
   <i type="logical" name="LHOLEGF"> F  </i>
   <i type="logical" name="L2ORDER"> F  </i>
   <i type="logical" name="LDMP1"> F  </i>
   <i type="logical" name="LMP2LT"> F  </i>
   <i type="logical" name="LSMP2LT"> F  </i>
   <i type="logical" name="LGWLF"> F  </i>
   <i name="ENCUTGW">     -1.60000002</i>
   <i name="ENCUTGWSOFT">     -1.60000002</i>
   <i name="ENCUTLF">     -1.00000000</i>
   <i type="logical" name="ESF_SPLINES"> F  </i>
   <i name="ESF_CONV">      0.01000000</i>
   <i type="int" name="ESF_NINTER">    15</i>
   <i type="int" name="LMAXMP2">    -1</i>
   <i name="SCISSOR">      0.00000000</i>
   <i type="int" name="NOMEGA">     0</i>
   <i type="int" name="NOMEGAR">     0</i>
   <i type="int" name="NBANDSGW">    -1</i>
   <i type="int" name="NBANDSO">    -1</i>
   <i type="int" name="NBANDSV">    -1</i>
   <i type="int" name="NELMGW">     1</i>
   <i type="int" name="NELMHF">     1</i>
   <i type="int" name="DIM">     3</i>
   <i type="int" name="IESPILON">     4</i>
   <i type="int" name="ANTIRES">     0</i>
   <i name="OMEGAMAX">    -30.00000000</i>
   <i name="OMEGAMIN">    -30.00000000</i>
   <i name="OMEGATL">   -200.00000000</i>
   <i type="int" name="OMEGAGRID">     0</i>
   <i name="CSHIFT">     -0.10000000</i>
   <i type="logical" name="LSELFENERGY"> F  </i>
   <i type="logical" name="LSPECTRAL"> F  </i>
   <i type="logical" name="LSPECTRALGW"> F  </i>
   <i type="logical" name="LSINGLES"> F  </i>
   <i type="logical" name="LFERMIGW"> F  </i>
   <i type="logical" name="ODDONLYGW"> F  </i>
   <i type="logical" name="EVENONLYGW"> F  </i>
   <i type="int" name="NKREDLFX">     1</i>
   <i type="int" name="NKREDLFY">     1</i>
   <i type="int" name="NKREDLFZ">     1</i>
   <i type="int" name="MAXMEM">  2800</i>
   <i type="int" name="TELESCOPE">     0</i>
   <i type="int" name="NTAUPAR">    -1</i>
   <i type="int" name="NOMEGAPAR">    -1</i>
   <i name="DAMP_NEWTON">      0.80000001</i>
   <i name="LAMBDA">      1.00000000</i>
  </separator>
  <separator name="External order field" >
   <i name="OFIELD_KAPPA">      0.00000000</i>
   <v name="OFIELD_K">      0.00000000      0.00000000      0.00000000</v>
   <i name="OFIELD_Q6_NEAR">      0.00000000</i>
   <i name="OFIELD_Q6_FAR">      0.00000000</i>
   <i name="OFIELD_A">      0.00000000</i>
  </separator>
  <separator name="optional k-points parameters" >
   <i type="int" name="KPOINTS_OPT_MODE">     1</i>
   <i type="logical" name="LKPOINTS_OPT"> F  </i>
  </separator>
 </parameters>
 <atominfo>
  <atoms>       8 </atoms>
  <types>       1 </types>
  <array name="atoms" >
   <dimension dim="1">ion</dimension>
   <field type="string">element</field>
   <field type="int">atomtype</field>
   <set>
    <rc><c>Si</c><c>   1</c></rc>
    <rc><c>Si</c><c>   1</c></rc>
    <rc><c>Si</c><c>   1</c></rc>
    <rc><c>Si</c><c>   1</c></rc>
    <rc><c>Si</c><c>   1</c></rc>
    <rc><c>Si</c><c>   1</c></rc>
    <rc><c>Si</c><c>   1</c></rc>
    <rc><c>Si</c><c>   1</c></rc>
   </set>
  </array>
  <array name="atomtypes" >
   <dimension dim="1">type</dimension>
   <field type="int">atomspertype</field>
   <field type="string">element</field>
   <field>mass</field>
   <field>valence</field>
   <field type="string">pseudopotential</field>
   <set>
    <rc><c>   8</c><c>Si</c><c>     28.08500000</c><c>      4.00000000</c><c>  PAW_PBE Si 05Jan2001                  </c></rc>
   </set>
  </array>
 </atominfo>
 <structure name="initialpos" >
  <crystal>
   <varray name="basis" >
    <v>      -0.00000000      -0.00000000       5.44370237 </v>
    <v>       5.44370237      -5.44370237       0.00000000 </v>
    <v>       2.72185119       2.72185119       0.00000000 </v>
   </varray>
   <i name="volume">    161.31810740 </i>
   <varray name="rec_basis" >
    <v>      -0.00000000       0.00000000       0.18369851 </v>
    <v>       0.09184925      -0.09184925      -0.00000000 </v>
    <v>       0.18369851       0.18369851       0.00000000 </v>
   </varray>
  </crystal>
  <varray name="positions" >
   <v>       0.00098191       0.00098191       0.00098191 </v>
   <v>       0.50000000       0.75000000       0.50000000 </v>
   <v>       0.00000000       0.50000000       0.00000000 </v>
   <v>       0.50000000       0.25000000       0.50000000 </v>
   <v>       0.25000000       0.00000000       0.50000000 </v>
   <v>       0.75000000       0.75000000       0.00000000 </v>
   <v>       0.25000000       0.50000000       0.50000000 </v>
   <v>       0.75000000       0.25000000       0.00000000 </v>
  </varray>
 </structure>
 <calculation>
  <scstep>
   <time name="dav">    1.11    1.11</time>
   <time name="total">    1.13    1.13</time>
   <energy>
    <i name="alphaZ">     13.35522965 </i>
    <i name="ewald">   -911.95052122 </i>
    <i name="hartreedc">    -44.46064251 </i>
    <i name="XCdc">    -74.52612457 </i>
    <i name="pawpsdc">    704.99039692 </i>
    <i name="pawaedc">   -564.24414232 </i>
    <i name="eentropy">     -0.00013545 </i>
    <i name="bandstr">    120.04122305 </i>
    <i name="atom">    824.53005375 </i>
    <i name="e_fr_energy">     67.73533730 </i>
    <i name="e_wo_entrp">     67.73547275 </i>
    <i name="e_0_energy">     67.73540503 </i>
   </energy>
  </scstep>
  <scstep>
   <time name="dav">    1.31    1.32</time>
   <time name="total">    1.31    1.32</time>
   <energy>
    <i name="e_fr_energy">    -38.83293848 </i>
    <i name="e_wo_entrp">    -38.83290811 </i>
    <i name="e_0_energy">    -38.83292329 </i>
   </energy>
  </scstep>
  <scstep>
   <time name="dav">    1.34    1.35</time>
   <time name="total">    1.34    1.35</time>
   <energy>
    <i name="e_fr_energy">    -43.99935100 </i>
    <i name="e_wo_entrp">    -43.99935100 </i>
    <i name="e_0_energy">    -43.99935100 </i>
   </energy>
  </scstep>
  <scstep>
   <time name="dav">    1.28    1.28</time>
   <time name="total">    1.28    1.28</time>
   <energy>
    <i name="e_fr_energy">    -44.09080336 </i>
    <i name="e_wo_entrp">    -44.09080336 </i>
    <i name="e_0_energy">    -44.09080336 </i>
   </energy>
  </scstep>
  <scstep>
   <time name="dav">    1.33    1.33</time>
   <time name="total">    1.37    1.37</time>
   <energy>
    <i name="e_fr_energy">    -44.09313523 </i>
    <i name="e_wo_entrp">    -44.09313523 </i>
    <i name="e_0_energy">    -44.09313523 </i>
   </energy>
  </scstep>
  <scstep>
   <time name="dav">    1.24    1.24</time>
   <time name="total">    1.29    1.29</time>
   <energy>
    <i name="e_fr_energy">    -43.60646470 </i>
    <i name="e_wo_entrp">    -43.60646470 </i>
    <i name="e_0_energy">    -43.60646470 </i>
   </energy>
  </scstep>
  <scstep>
   <time name="dav">    1.23    1.23</time>
   <time name="total">    1.28    1.28</time>
   <energy>
    <i name="e_fr_energy">    -43.38480794 </i>
    <i name="e_wo_entrp">    -43.38480794 </i>
    <i name="e_0_energy">    -43.38480794 </i>
   </energy>
  </scstep>
  <scstep>
   <time name="dav">    1.26    1.26</time>
   <time name="total">    1.32    1.32</time>
   <energy>
    <i name="e_fr_energy">    -43.38851188 </i>
    <i name="e_wo_entrp">    -43.38851188 </i>
    <i name="e_0_energy">    -43.38851188 </i>
   </energy>
  </scstep>
  <scstep>
   <time name="dav">    1.30    1.30</time>
   <time name="total">    1.35    1.35</time>
   <energy>
    <i name="e_fr_energy">    -43.38937434 </i>
    <i name="e_wo_entrp">    -43.38937434 </i>
    <i name="e_0_energy">    -43.38937434 </i>
   </energy>
  </scstep>
  <scstep>
   <time name="dav">    1.23    1.23</time>
   <time name="total">    1.29    1.29</time>
   <energy>
    <i name="e_fr_energy">    -43.38960857 </i>
    <i name="e_wo_entrp">    -43.38960857 </i>
    <i name="e_0_energy">    -43.38960857 </i>
   </energy>
  </scstep>
  <scstep>
   <time name="dav">    1.31    1.31</time>
   <time name="total">    1.36    1.36</time>
   <energy>
    <i name="e_fr_energy">    -43.38960726 </i>
    <i name="e_wo_entrp">    -43.38960726 </i>
    <i name="e_0_energy">    -43.38960726 </i>
   </energy>
  </scstep>
  <scstep>
   <time name="dav">    1.27    1.27</time>
   <time name="total">    1.32    1.33</time>
   <energy>
    <i name="e_fr_energy">    -43.38960855 </i>
    <i name="e_wo_entrp">    -43.38960855 </i>
    <i name="e_0_energy">    -43.38960855 </i>
   </energy>
  </scstep>
  <scstep>
   <time name="dav">    1.29    1.29</time>
   <time name="total">    1.34    1.34</time>
   <energy>
    <i name="e_fr_energy">    -43.38960833 </i>
    <i name="e_wo_entrp">    -43.38960833 </i>
    <i name="e_0_energy">    -43.38960833 </i>
   </energy>
  </scstep>
  <scstep>
   <time name="dav">    1.09    1.09</time>
   <time name="total">    1.15    1.15</time>
   <energy>
    <i name="e_fr_energy">    -43.38960839 </i>
    <i name="e_wo_entrp">    -43.38960839 </i>
    <i name="e_0_energy">    -43.38960839 </i>
   </energy>
  </scstep>
  <scstep>
   <time name="dav">    1.01    1.01</time>
   <time name="total">    1.06    1.06</time>
   <energy>
    <i name="e_fr_energy">    -43.38960837 </i>
    <i name="e_wo_entrp">    -43.38960837 </i>
    <i name="e_0_energy">    -43.38960837 </i>
   </energy>
  </scstep>
  <scstep>
   <time name="dav">    0.97    0.97</time>
   <time name="total">    0.98    0.98</time>
   <energy>
    <i name="alphaZ">     13.35522965 </i>
    <i name="ewald">   -911.95052122 </i>
    <i name="hartreedc">    -60.02999487 </i>
    <i name="XCdc">    -71.99012352 </i>
    <i name="pawpsdc">   3421.52209990 </i>
    <i name="pawaedc">  -3281.64537512 </i>
    <i name="eentropy">     -0.00000000 </i>
    <i name="bandstr">     22.81902308 </i>
    <i name="atom">    824.53005375 </i>
    <i name="e_fr_energy">    -43.38960836 </i>
    <i name="e_wo_entrp">    -43.38960836 </i>
    <i name="e_0_energy">    -43.38960836 </i>
   </energy>
  </scstep>
  <structure>
   <crystal>
    <varray name="basis" >
     <v>      -0.00000000      -0.00000000       5.44370237 </v>
     <v>       5.44370237      -5.44370237       0.00000000 </v>
     <v>       2.72185119       2.72185119       0.00000000 </v>
    </varray>
    <i name="volume">    161.31810740 </i>
    <varray name="rec_basis" >
     <v>      -0.00000000       0.00000000       0.18369851 </v>
     <v>       0.09184925      -0.09184925      -0.00000000 </v>
     <v>       0.18369851       0.18369851       0.00000000 </v>
    </varray>
   </crystal>
   <varray name="positions" >
    <v>       0.00098191       0.00098191       0.00098191 </v>
    <v>       0.50000000       0.75000000       0.50000000 </v>
    <v>       0.00000000       0.50000000       0.00000000 </v>
    <v>       0.50000000       0.25000000       0.50000000 </v>
    <v>       0.25000000       0.00000000       0.50000000 </v>
    <v>       0.75000000       0.75000000       0.00000000 </v>
    <v>       0.25000000       0.50000000       0.50000000 </v>
    <v>       0.75000000       0.25000000       0.00000000 </v>
   </varray>
  </structure>
  <varray name="forces" >
   <v>      -0.10201236       0.03460583      -0.07661856 </v>
   <v>      -0.00234818       0.00015823       0.00289032 </v>
   <v>       0.00167375      -0.00240152      -0.00433641 </v>
   <v>      -0.00416432       0.00200038       0.00662211 </v>
   <v>       0.03882812       0.02056557       0.03667684 </v>
   <v>       0.04425839      -0.03913548       0.04060256 </v>
   <v>       0.00218501       0.00081923      -0.00046053 </v>
   <v>       0.02157959      -0.01661223      -0.00537633 </v>
  </varray>
  <varray name="stress" >
   <v>      12.55634503       0.49062625      -0.24576655 </v>
   <v>       0.49062625      12.56625414       0.76293863 </v>
   <v>      -0.24576652       0.76293865      12.47590360 </v>
  </varray>
  <energy>
   <i name="e_fr_energy">    -43.38960836 </i>
   <i name="e_wo_entrp">    -43.38960836 </i>
   <i name="e_0_energy">    -43.38960836 </i>
  </energy>
  <time name="totalsc">   21.02   21.04</time>
  <eigenvalues>
   <array>
    <dimension dim="1">band</dimension>
    <dimension dim="2">kpoint</dimension>
    <dimension dim="3">spin</dimension>
    <field>eigene</field>
    <field>occ</field>
    <set>
     <set comment="spin 1">
      <set comment="kpoint 1">
       <r>   -6.1548    1.0000 </r>
       <r>   -4.1311    1.0000 </r>
       <r>   -4.1203    1.0000 </r>
       <r>   -2.0408    1.0000 </r>
       <r>   -2.0324    1.0000 </r>
       <r>    0.2866    1.0000 </r>
       <r>    0.3015    1.0000 </r>
       <r>    2.0285    1.0000 </r>
       <r>    2.0346    1.0000 </r>
       <r>    2.9211    1.0000 </r>
       <r>    2.9257    1.0000 </r>
       <r>    4.4259    1.0000 </r>
       <r>    4.4379    1.0000 </r>
       <r>    5.7431    1.0000 </r>
       <r>    5.7504    1.0000 </r>
       <r>    5.7666    1.0000 </r>
       <r>    6.4752    0.0000 </r>
       <r>    6.4817    0.0000 </r>
       <r>    8.1920    0.0000 </r>
       <r>    8.2019    0.0000 </r>
       <r>    8.3087    0.0000 </r>
       <r>    8.3180    0.0000 </r>
       <r>    8.3223    0.0000 </r>
       <r>    9.0445    0.0000 </r>
      </set>
      <set comment="kpoint 2">
       <r>   -6.0869    1.0000 </r>
       <r>   -4.0958    1.0000 </r>
       <r>   -4.0852    1.0000 </r>
       <r>   -2.9543    1.0000 </r>
       <r>   -1.0380    1.0000 </r>
       <r>   -0.0463    1.0000 </r>
       <r>   -0.0315    1.0000 </r>
       <r>    2.4609    1.0000 </r>
       <r>    2.4704    1.0000 </r>
       <r>    2.9823    1.0000 </r>
       <r>    2.9871    1.0000 </r>
       <r>    4.4434    1.0000 </r>
       <r>    4.4553    1.0000 </r>
       <r>    5.3293    1.0000 </r>
       <r>    5.4882    1.0000 </r>
       <r>    5.4993    1.0000 </r>
       <r>    6.3452    0.0000 </r>
       <r>    6.7954    0.0000 </r>
       <r>    8.1554    0.0000 </r>
       <r>    8.1991    0.0000 </r>
       <r>    8.2076    0.0000 </r>
       <r>    8.6570    0.0000 </r>
       <r>    8.6625    0.0000 </r>
       <r>    9.4489    0.0000 </r>
      </set>
      <set comment="kpoint 3">
       <r>   -5.8836    1.0000 </r>
       <r>   -4.0034    1.0000 </r>
       <r>   -3.9931    1.0000 </r>
       <r>   -3.7751    1.0000 </r>
       <r>   -0.5976    1.0000 </r>
       <r>   -0.5833    1.0000 </r>
       <r>    0.0220    1.0000 </r>
       <r>    3.1650    1.0000 </r>
       <r>    3.1697    1.0000 </r>
       <r>    3.3036    1.0000 </r>
       <r>    3.3148    1.0000 </r>
       <r>    4.4144    1.0000 </r>
       <r>    4.4873    1.0000 </r>
       <r>    4.4989    1.0000 </r>
       <r>    4.9505    1.0000 </r>
       <r>    4.9587    1.0000 </r>
       <r>    6.3817    0.0000 </r>
       <r>    7.3064    0.0000 </r>
       <r>    7.7680    0.0000 </r>
       <r>    8.0942    0.0000 </r>
       <r>    8.1006    0.0000 </r>
       <r>    9.3672    0.0000 </r>
       <r>    9.3710    0.0000 </r>
       <r>    9.4460    0.0000 </r>
      </set>
      <set comment="kpoint 4">
       <r>   -5.5468    1.0000 </r>
       <r>   -4.4868    1.0000 </r>
       <r>   -3.8971    1.0000 </r>
       <r>   -3.8875    1.0000 </r>
       <r>   -1.0224    1.0000 </r>
       <r>   -1.0084    1.0000 </r>
       <r>    1.1214    1.0000 </r>
       <r>    3.3480    1.0000 </r>
       <r>    3.4655    1.0000 </r>
       <r>    3.4709    1.0000 </r>
       <r>    4.1447    1.0000 </r>
       <r>    4.1556    1.0000 </r>
       <r>    4.3823    1.0000 </r>
       <r>    4.3896    1.0000 </r>
       <r>    4.5337    1.0000 </r>
       <r>    4.5448    1.0000 </r>
       <r>    6.5714    0.0000 </r>
       <r>    7.3107    0.0000 </r>
       <r>    7.6141    0.0000 </r>
       <r>    7.6206    0.0000 </r>
       <r>    8.0130    0.0000 </r>
       <r>    9.0958    0.0000 </r>
       <r>    9.1015    0.0000 </r>
       <r>    9.2378    0.0000 </r>
      </set>
      <set comment="kpoint 5">
       <r>   -5.0841    1.0000 </r>
       <r>   -5.0749    1.0000 </r>
       <r>   -3.8479    1.0000 </r>
       <r>   -3.8386    1.0000 </r>
       <r>   -1.1822    1.0000 </r>
       <r>   -1.1684    1.0000 </r>
       <r>    2.2364    1.0000 </r>
       <r>    2.2395    1.0000 </r>
       <r>    3.8707    1.0000 </r>
       <r>    3.8766    1.0000 </r>
       <r>    3.8820    1.0000 </r>
       <r>    3.8878    1.0000 </r>
       <r>    4.5515    1.0000 </r>
       <r>    4.5611    1.0000 </r>
       <r>    4.5649    1.0000 </r>
       <r>    4.5714    1.0000 </r>
       <r>    6.8900    0.0000 </r>
       <r>    6.8943    0.0000 </r>
       <r>    7.2659    0.0000 </r>
       <r>    7.2696    0.0000 </r>
       <r>    8.8865    0.0000 </r>
       <r>    8.8907    0.0000 </r>
       <r>    9.0892    0.0000 </r>
       <r>    9.0955    0.0000 </r>
      </set>
      <set comment="kpoint 6">
       <r>   -6.0680    1.0000 </r>
       <r>   -4.8152    1.0000 </r>
       <r>   -3.3827    1.0000 </r>
       <r>   -2.0826    1.0000 </r>
       <r>   -1.9382    1.0000 </r>
       <r>   -0.5360    1.0000 </r>
       <r>    1.2946    1.0000 </r>
       <r>    1.5245    1.0000 </r>
       <r>    2.4502    1.0000 </r>
       <r>    2.7773    1.0000 </r>
       <r>    2.9905    1.0000 </r>
       <r>    3.9487    1.0000 </r>
       <r>    4.9092    1.0000 </r>
       <r>    5.0206    1.0000 </r>
       <r>    5.4053    1.0000 </r>
       <r>    5.7075    1.0000 </r>
       <r>    6.5554    0.0000 </r>
       <r>    7.2506    0.0000 </r>
       <r>    7.6629    0.0000 </r>
       <r>    8.4093    0.0000 </r>
       <r>    8.4747    0.0000 </r>
       <r>    8.5441    0.0000 </r>
       <r>    8.6315    0.0000 </r>
       <r>    9.6757    0.0000 </r>
      </set>
      <set comment="kpoint 7">
       <r>   -6.0005    1.0000 </r>
       <r>   -4.7598    1.0000 </r>
       <r>   -3.4087    1.0000 </r>
       <r>   -2.9065    1.0000 </r>
       <r>   -1.0498    1.0000 </r>
       <r>   -0.7276    1.0000 </r>
       <r>    0.8844    1.0000 </r>
       <r>    1.8881    1.0000 </r>
       <r>    2.5329    1.0000 </r>
       <r>    3.0509    1.0000 </r>
       <r>    3.2477    1.0000 </r>
       <r>    3.9892    1.0000 </r>
       <r>    4.4686    1.0000 </r>
       <r>    4.8840    1.0000 </r>
       <r>    5.4728    1.0000 </r>
       <r>    5.5538    1.0000 </r>
       <r>    6.5942    0.0000 </r>
       <r>    7.3887    0.0000 </r>
       <r>    7.7238    0.0000 </r>
       <r>    8.2957    0.0000 </r>
       <r>    8.4575    0.0000 </r>
       <r>    8.5936    0.0000 </r>
       <r>    8.7109    0.0000 </r>
       <r>    9.5587    0.0000 </r>
      </set>
      <set comment="kpoint 8">
       <r>   -6.0004    1.0000 </r>
       <r>   -4.7607    1.0000 </r>
       <r>   -3.4055    1.0000 </r>
       <r>   -2.9083    1.0000 </r>
       <r>   -1.0461    1.0000 </r>
       <r>   -0.7366    1.0000 </r>
       <r>    0.8913    1.0000 </r>
       <r>    1.8945    1.0000 </r>
       <r>    2.5303    1.0000 </r>
       <r>    3.0510    1.0000 </r>
       <r>    3.2410    1.0000 </r>
       <r>    3.9883    1.0000 </r>
       <r>    4.4564    1.0000 </r>
       <r>    4.8857    1.0000 </r>
       <r>    5.4718    1.0000 </r>
       <r>    5.5694    1.0000 </r>
       <r>    6.5950    0.0000 </r>
       <r>    7.3887    0.0000 </r>
       <r>    7.7235    0.0000 </r>
       <r>    8.3027    0.0000 </r>
       <r>    8.4557    0.0000 </r>
       <r>    8.5855    0.0000 </r>
       <r>    8.7136    0.0000 </r>
       <r>    9.5487    0.0000 </r>
      </set>
      <set comment="kpoint 9">
       <r>   -5.7986    1.0000 </r>
       <r>   -4.5986    1.0000 </r>
       <r>   -3.7119    1.0000 </r>
       <r>   -3.5124    1.0000 </r>
       <r>   -1.0010    1.0000 </r>
       <r>   -0.0573    1.0000 </r>
       <r>    0.2164    1.0000 </r>
       <r>    2.6892    1.0000 </r>
       <r>    2.7807    1.0000 </r>
       <r>    3.2308    1.0000 </r>
       <r>    3.6538    1.0000 </r>
       <r>    4.0472    1.0000 </r>
       <r>    4.1045    1.0000 </r>
       <r>    4.8039    1.0000 </r>
       <r>    4.9684    1.0000 </r>
       <r>    5.1782    1.0000 </r>
       <r>    6.7272    0.0000 </r>
       <r>    7.7839    0.0000 </r>
       <r>    7.8748    0.0000 </r>
       <r>    7.8928    0.0000 </r>
       <r>    8.1541    0.0000 </r>
       <r>    8.8466    0.0000 </r>
       <r>    9.2770    0.0000 </r>
       <r>    9.3575    0.0000 </r>
      </set>
      <set comment="kpoint 10">
       <r>   -5.7983    1.0000 </r>
       <r>   -4.6006    1.0000 </r>
       <r>   -3.7130    1.0000 </r>
       <r>   -3.5070    1.0000 </r>
       <r>   -1.0137    1.0000 </r>
       <r>   -0.0521    1.0000 </r>
       <r>    0.2254    1.0000 </r>
       <r>    2.6979    1.0000 </r>
       <r>    2.7750    1.0000 </r>
       <r>    3.2311    1.0000 </r>
       <r>    3.6418    1.0000 </r>
       <r>    4.0387    1.0000 </r>
       <r>    4.1027    1.0000 </r>
       <r>    4.8070    1.0000 </r>
       <r>    4.9672    1.0000 </r>
       <r>    5.1942    1.0000 </r>
       <r>    6.7284    0.0000 </r>
       <r>    7.7844    0.0000 </r>
       <r>    7.8740    0.0000 </r>
       <r>    7.8894    0.0000 </r>
       <r>    8.1559    0.0000 </r>
       <r>    8.8433    0.0000 </r>
       <r>    9.2652    0.0000 </r>
       <r>    9.3676    0.0000 </r>
      </set>
      <set comment="kpoint 11">
       <r>   -5.4644    1.0000 </r>
       <r>   -4.4138    1.0000 </r>
       <r>   -4.3463    1.0000 </r>
       <r>   -3.7343    1.0000 </r>
       <r>   -1.0499    1.0000 </r>
       <r>   -0.3853    1.0000 </r>
       <r>    0.9333    1.0000 </r>
       <r>    2.7954    1.0000 </r>
       <r>    3.1978    1.0000 </r>
       <r>    3.5262    1.0000 </r>
       <r>    3.6078    1.0000 </r>
       <r>    4.2772    1.0000 </r>
       <r>    4.4222    1.0000 </r>
       <r>    4.4759    1.0000 </r>
       <r>    4.6113    1.0000 </r>
       <r>    4.6635    1.0000 </r>
       <r>    6.9702    0.0000 </r>
       <r>    7.3821    0.0000 </r>
       <r>    7.7369    0.0000 </r>
       <r>    7.9289    0.0000 </r>
       <r>    8.4068    0.0000 </r>
       <r>    9.1441    0.0000 </r>
       <r>    9.1721    0.0000 </r>
       <r>    9.2000    0.0000 </r>
      </set>
      <set comment="kpoint 12">
       <r>   -5.4639    1.0000 </r>
       <r>   -4.4152    1.0000 </r>
       <r>   -4.3491    1.0000 </r>
       <r>   -3.7285    1.0000 </r>
       <r>   -1.0630    1.0000 </r>
       <r>   -0.3751    1.0000 </r>
       <r>    0.9408    1.0000 </r>
       <r>    2.7841    1.0000 </r>
       <r>    3.1891    1.0000 </r>
       <r>    3.5267    1.0000 </r>
       <r>    3.6169    1.0000 </r>
       <r>    4.2744    1.0000 </r>
       <r>    4.4216    1.0000 </r>
       <r>    4.4904    1.0000 </r>
       <r>    4.6013    1.0000 </r>
       <r>    4.6669    1.0000 </r>
       <r>    6.9715    0.0000 </r>
       <r>    7.3783    0.0000 </r>
       <r>    7.7363    0.0000 </r>
       <r>    7.9309    0.0000 </r>
       <r>    8.4076    0.0000 </r>
       <r>    9.1443    0.0000 </r>
       <r>    9.1594    0.0000 </r>
       <r>    9.2027    0.0000 </r>
      </set>
      <set comment="kpoint 13">
       <r>   -5.0054    1.0000 </r>
       <r>   -4.9963    1.0000 </r>
       <r>   -4.0427    1.0000 </r>
       <r>   -4.0335    1.0000 </r>
       <r>   -0.8348    1.0000 </r>
       <r>   -0.8215    1.0000 </r>
       <r>    1.8850    1.0000 </r>
       <r>    1.8955    1.0000 </r>
       <r>    3.7683    1.0000 </r>
       <r>    3.7824    1.0000 </r>
       <r>    3.9235    1.0000 </r>
       <r>    3.9347    1.0000 </r>
       <r>    4.3965    1.0000 </r>
       <r>    4.4065    1.0000 </r>
       <r>    4.4713    1.0000 </r>
       <r>    4.4821    1.0000 </r>
       <r>    7.3146    0.0000 </r>
       <r>    7.3198    0.0000 </r>
       <r>    7.5349    0.0000 </r>
       <r>    7.5388    0.0000 </r>
       <r>    9.0245    0.0000 </r>
       <r>    9.0311    0.0000 </r>
       <r>    9.2045    0.0000 </r>
       <r>    9.2101    0.0000 </r>
      </set>
      <set comment="kpoint 14">
       <r>   -5.8096    1.0000 </r>
       <r>   -5.3868    1.0000 </r>
       <r>   -2.7109    1.0000 </r>
       <r>   -2.2684    1.0000 </r>
       <r>   -1.6561    1.0000 </r>
       <r>   -1.1876    1.0000 </r>
       <r>    1.3816    1.0000 </r>
       <r>    1.7265    1.0000 </r>
       <r>    2.4514    1.0000 </r>
       <r>    3.1951    1.0000 </r>
       <r>    3.5226    1.0000 </r>
       <r>    3.6685    1.0000 </r>
       <r>    3.7311    1.0000 </r>
       <r>    4.6035    1.0000 </r>
       <r>    5.3060    1.0000 </r>
       <r>    5.5716    1.0000 </r>
       <r>    6.7921    0.0000 </r>
       <r>    7.1717    0.0000 </r>
       <r>    8.6769    0.0000 </r>
       <r>    8.7147    0.0000 </r>
       <r>    8.7924    0.0000 </r>
       <r>    8.8564    0.0000 </r>
       <r>    8.9083    0.0000 </r>
       <r>    9.1226    0.0000 </r>
      </set>
      <set comment="kpoint 15">
       <r>   -5.7437    1.0000 </r>
       <r>   -5.3238    1.0000 </r>
       <r>   -2.9229    1.0000 </r>
       <r>   -2.8198    1.0000 </r>
       <r>   -1.1033    1.0000 </r>
       <r>   -1.0820    1.0000 </r>
       <r>    1.6387    1.0000 </r>
       <r>    1.8755    1.0000 </r>
       <r>    1.9876    1.0000 </r>
       <r>    3.2231    1.0000 </r>
       <r>    3.2525    1.0000 </r>
       <r>    3.5746    1.0000 </r>
       <r>    4.1373    1.0000 </r>
       <r>    4.9907    1.0000 </r>
       <r>    5.2138    1.0000 </r>
       <r>    5.4013    1.0000 </r>
       <r>    6.8700    0.0000 </r>
       <r>    7.2499    0.0000 </r>
       <r>    8.1661    0.0000 </r>
       <r>    8.3241    0.0000 </r>
       <r>    8.8601    0.0000 </r>
       <r>    8.9965    0.0000 </r>
       <r>    9.1333    0.0000 </r>
       <r>    9.1394    0.0000 </r>
      </set>
      <set comment="kpoint 16">
       <r>   -5.7434    1.0000 </r>
       <r>   -5.3244    1.0000 </r>
       <r>   -2.9179    1.0000 </r>
       <r>   -2.8238    1.0000 </r>
       <r>   -1.0974    1.0000 </r>
       <r>   -1.0903    1.0000 </r>
       <r>    1.6449    1.0000 </r>
       <r>    1.8707    1.0000 </r>
       <r>    1.9949    1.0000 </r>
       <r>    3.2145    1.0000 </r>
       <r>    3.2529    1.0000 </r>
       <r>    3.5741    1.0000 </r>
       <r>    4.1295    1.0000 </r>
       <r>    5.0011    1.0000 </r>
       <r>    5.2157    1.0000 </r>
       <r>    5.3996    1.0000 </r>
       <r>    6.8705    0.0000 </r>
       <r>    7.2495    0.0000 </r>
       <r>    8.1713    0.0000 </r>
       <r>    8.3200    0.0000 </r>
       <r>    8.8656    0.0000 </r>
       <r>    8.9967    0.0000 </r>
       <r>    9.1258    0.0000 </r>
       <r>    9.1350    0.0000 </r>
      </set>
      <set comment="kpoint 17">
       <r>   -5.5466    1.0000 </r>
       <r>   -5.1372    1.0000 </r>
       <r>   -3.5468    1.0000 </r>
       <r>   -3.3950    1.0000 </r>
       <r>   -0.8339    1.0000 </r>
       <r>   -0.3682    1.0000 </r>
       <r>    1.2602    1.0000 </r>
       <r>    2.3015    1.0000 </r>
       <r>    2.3144    1.0000 </r>
       <r>    2.4541    1.0000 </r>
       <r>    3.4234    1.0000 </r>
       <r>    3.7270    1.0000 </r>
       <r>    4.7476    1.0000 </r>
       <r>    4.9662    1.0000 </r>
       <r>    4.9984    1.0000 </r>
       <r>    5.1554    1.0000 </r>
       <r>    7.0974    0.0000 </r>
       <r>    7.4736    0.0000 </r>
       <r>    7.7050    0.0000 </r>
       <r>    7.9419    0.0000 </r>
       <r>    9.0380    0.0000 </r>
       <r>    9.2191    0.0000 </r>
       <r>    9.2666    0.0000 </r>
       <r>    9.3137    0.0000 </r>
      </set>
      <set comment="kpoint 18">
       <r>   -5.5460    1.0000 </r>
       <r>   -5.1384    1.0000 </r>
       <r>   -3.5497    1.0000 </r>
       <r>   -3.3900    1.0000 </r>
       <r>   -0.8468    1.0000 </r>
       <r>   -0.3580    1.0000 </r>
       <r>    1.2689    1.0000 </r>
       <r>    2.3029    1.0000 </r>
       <r>    2.3136    1.0000 </r>
       <r>    2.4442    1.0000 </r>
       <r>    3.4241    1.0000 </r>
       <r>    3.7259    1.0000 </r>
       <r>    4.7375    1.0000 </r>
       <r>    4.9691    1.0000 </r>
       <r>    4.9963    1.0000 </r>
       <r>    5.1683    1.0000 </r>
       <r>    7.0982    0.0000 </r>
       <r>    7.4729    0.0000 </r>
       <r>    7.7008    0.0000 </r>
       <r>    7.9471    0.0000 </r>
       <r>    9.0330    0.0000 </r>
       <r>    9.2077    0.0000 </r>
       <r>    9.2666    0.0000 </r>
       <r>    9.3227    0.0000 </r>
      </set>
      <set comment="kpoint 19">
       <r>   -5.2212    1.0000 </r>
       <r>   -4.8324    1.0000 </r>
       <r>   -4.2083    1.0000 </r>
       <r>   -3.9286    1.0000 </r>
       <r>   -0.4729    1.0000 </r>
       <r>    0.3240    1.0000 </r>
       <r>    0.5774    1.0000 </r>
       <r>    1.7074    1.0000 </r>
       <r>    2.9968    1.0000 </r>
       <r>    3.1748    1.0000 </r>
       <r>    3.7019    1.0000 </r>
       <r>    3.9701    1.0000 </r>
       <r>    4.5241    1.0000 </r>
       <r>    4.6322    1.0000 </r>
       <r>    4.6361    1.0000 </r>
       <r>    4.7576    1.0000 </r>
       <r>    7.4490    0.0000 </r>
       <r>    7.6544    0.0000 </r>
       <r>    7.7923    0.0000 </r>
       <r>    8.1362    0.0000 </r>
       <r>    9.0286    0.0000 </r>
       <r>    9.1212    0.0000 </r>
       <r>    9.4566    0.0000 </r>
       <r>    9.7252    0.0000 </r>
      </set>
      <set comment="kpoint 20">
       <r>   -5.2202    1.0000 </r>
       <r>   -4.8343    1.0000 </r>
       <r>   -4.2103    1.0000 </r>
       <r>   -3.9248    1.0000 </r>
       <r>   -0.4850    1.0000 </r>
       <r>    0.3350    1.0000 </r>
       <r>    0.5872    1.0000 </r>
       <r>    1.6970    1.0000 </r>
       <r>    2.9856    1.0000 </r>
       <r>    3.1849    1.0000 </r>
       <r>    3.7030    1.0000 </r>
       <r>    3.9682    1.0000 </r>
       <r>    4.5223    1.0000 </r>
       <r>    4.6357    1.0000 </r>
       <r>    4.6483    1.0000 </r>
       <r>    4.7465    1.0000 </r>
       <r>    7.4497    0.0000 </r>
       <r>    7.6499    0.0000 </r>
       <r>    7.7923    0.0000 </r>
       <r>    8.1413    0.0000 </r>
       <r>    9.0229    0.0000 </r>
       <r>    9.1250    0.0000 </r>
       <r>    9.4443    0.0000 </r>
       <r>    9.7261    0.0000 </r>
      </set>
      <set comment="kpoint 21">
       <r>   -4.7767    1.0000 </r>
       <r>   -4.7675    1.0000 </r>
       <r>   -4.4267    1.0000 </r>
       <r>   -4.4176    1.0000 </r>
       <r>   -0.0102    1.0000 </r>
       <r>    0.0024    1.0000 </r>
       <r>    0.9968    1.0000 </r>
       <r>    1.0093    1.0000 </r>
       <r>    3.8142    1.0000 </r>
       <r>    3.8270    1.0000 </r>
       <r>    4.0687    1.0000 </r>
       <r>    4.0753    1.0000 </r>
       <r>    4.0824    1.0000 </r>
       <r>    4.0853    1.0000 </r>
       <r>    4.2780    1.0000 </r>
       <r>    4.2887    1.0000 </r>
       <r>    7.8602    0.0000 </r>
       <r>    7.8682    0.0000 </r>
       <r>    7.9711    0.0000 </r>
       <r>    7.9770    0.0000 </r>
       <r>    9.0906    0.0000 </r>
       <r>    9.0934    0.0000 </r>
       <r>    9.7825    0.0000 </r>
       <r>    9.7878    0.0000 </r>
      </set>
      <set comment="kpoint 22">
       <r>   -6.0830    1.0000 </r>
       <r>   -4.0582    1.0000 </r>
       <r>   -4.0474    1.0000 </r>
       <r>   -2.0663    1.0000 </r>
       <r>   -1.9629    1.0000 </r>
       <r>    0.2476    1.0000 </r>
       <r>    0.2625    1.0000 </r>
       <r>    2.0841    1.0000 </r>
       <r>    2.0900    1.0000 </r>
       <r>    2.5139    1.0000 </r>
       <r>    2.9832    1.0000 </r>
       <r>    4.0357    1.0000 </r>
       <r>    4.0472    1.0000 </r>
       <r>    5.1161    1.0000 </r>
       <r>    5.4619    1.0000 </r>
       <r>    5.7275    1.0000 </r>
       <r>    6.5480    0.0000 </r>
       <r>    7.1244    0.0000 </r>
       <r>    8.3861    0.0000 </r>
       <r>    8.4555    0.0000 </r>
       <r>    8.5238    0.0000 </r>
       <r>    8.8064    0.0000 </r>
       <r>    8.8162    0.0000 </r>
       <r>    9.5149    0.0000 </r>
      </set>
      <set comment="kpoint 23">
       <r>   -6.0153    1.0000 </r>
       <r>   -4.0230    1.0000 </r>
       <r>   -4.0124    1.0000 </r>
       <r>   -2.9150    1.0000 </r>
       <r>   -1.0455    1.0000 </r>
       <r>   -0.0557    1.0000 </r>
       <r>   -0.0409    1.0000 </r>
       <r>    2.4616    1.0000 </r>
       <r>    2.4708    1.0000 </r>
       <r>    2.5911    1.0000 </r>
       <r>    3.0439    1.0000 </r>
       <r>    4.0672    1.0000 </r>
       <r>    4.0791    1.0000 </r>
       <r>    4.5599    1.0000 </r>
       <r>    5.4857    1.0000 </r>
       <r>    5.5837    1.0000 </r>
       <r>    6.5762    0.0000 </r>
       <r>    7.2745    0.0000 </r>
       <r>    8.3258    0.0000 </r>
       <r>    8.5444    0.0000 </r>
       <r>    8.6985    0.0000 </r>
       <r>    8.7909    0.0000 </r>
       <r>    8.7952    0.0000 </r>
       <r>    9.0713    0.0000 </r>
      </set>
      <set comment="kpoint 24">
       <r>   -6.0154    1.0000 </r>
       <r>   -4.0231    1.0000 </r>
       <r>   -4.0124    1.0000 </r>
       <r>   -2.9142    1.0000 </r>
       <r>   -1.0472    1.0000 </r>
       <r>   -0.0552    1.0000 </r>
       <r>   -0.0405    1.0000 </r>
       <r>    2.4600    1.0000 </r>
       <r>    2.4688    1.0000 </r>
       <r>    2.5924    1.0000 </r>
       <r>    3.0439    1.0000 </r>
       <r>    4.0696    1.0000 </r>
       <r>    4.0800    1.0000 </r>
       <r>    4.5660    1.0000 </r>
       <r>    5.4861    1.0000 </r>
       <r>    5.5758    1.0000 </r>
       <r>    6.5758    0.0000 </r>
       <r>    7.2746    0.0000 </r>
       <r>    8.3220    0.0000 </r>
       <r>    8.5490    0.0000 </r>
       <r>    8.6973    0.0000 </r>
       <r>    8.7852    0.0000 </r>
       <r>    8.7956    0.0000 </r>
       <r>    9.0835    0.0000 </r>
      </set>
      <set comment="kpoint 25">
       <r>   -5.8131    1.0000 </r>
       <r>   -3.9309    1.0000 </r>
       <r>   -3.9206    1.0000 </r>
       <r>   -3.7230    1.0000 </r>
       <r>   -0.5789    1.0000 </r>
       <r>   -0.5646    1.0000 </r>
       <r>   -0.0391    1.0000 </r>
       <r>    2.8255    1.0000 </r>
       <r>    3.1816    1.0000 </r>
       <r>    3.1916    1.0000 </r>
       <r>    3.2252    1.0000 </r>
       <r>    3.7426    1.0000 </r>
       <r>    4.1581    1.0000 </r>
       <r>    4.1694    1.0000 </r>
       <r>    4.9730    1.0000 </r>
       <r>    5.1694    1.0000 </r>
       <r>    6.6914    0.0000 </r>
       <r>    7.6907    0.0000 </r>
       <r>    8.1073    0.0000 </r>
       <r>    8.3197    0.0000 </r>
       <r>    8.3302    0.0000 </r>
       <r>    8.9072    0.0000 </r>
       <r>    8.9843    0.0000 </r>
       <r>    8.9944    0.0000 </r>
      </set>
      <set comment="kpoint 26">
       <r>   -5.8132    1.0000 </r>
       <r>   -3.9309    1.0000 </r>
       <r>   -3.9207    1.0000 </r>
       <r>   -3.7224    1.0000 </r>
       <r>   -0.5785    1.0000 </r>
       <r>   -0.5642    1.0000 </r>
       <r>   -0.0416    1.0000 </r>
       <r>    2.8281    1.0000 </r>
       <r>    3.1780    1.0000 </r>
       <r>    3.1880    1.0000 </r>
       <r>    3.2250    1.0000 </r>
       <r>    3.7489    1.0000 </r>
       <r>    4.1635    1.0000 </r>
       <r>    4.1711    1.0000 </r>
       <r>    4.9735    1.0000 </r>
       <r>    5.1614    1.0000 </r>
       <r>    6.6908    0.0000 </r>
       <r>    7.6907    0.0000 </r>
       <r>    8.1070    0.0000 </r>
       <r>    8.3205    0.0000 </r>
       <r>    8.3291    0.0000 </r>
       <r>    8.9083    0.0000 </r>
       <r>    8.9922    0.0000 </r>
       <r>    8.9950    0.0000 </r>
      </set>
      <set comment="kpoint 27">
       <r>   -5.4782    1.0000 </r>
       <r>   -4.4268    1.0000 </r>
       <r>   -3.8251    1.0000 </r>
       <r>   -3.8154    1.0000 </r>
       <r>   -0.9903    1.0000 </r>
       <r>   -0.9763    1.0000 </r>
       <r>    0.9721    1.0000 </r>
       <r>    2.8699    1.0000 </r>
       <r>    3.2211    1.0000 </r>
       <r>    3.5215    1.0000 </r>
       <r>    3.7930    1.0000 </r>
       <r>    3.8002    1.0000 </r>
       <r>    4.3043    1.0000 </r>
       <r>    4.3126    1.0000 </r>
       <r>    4.4218    1.0000 </r>
       <r>    4.4686    1.0000 </r>
       <r>    6.9213    0.0000 </r>
       <r>    7.6773    0.0000 </r>
       <r>    7.8999    0.0000 </r>
       <r>    7.9073    0.0000 </r>
       <r>    8.3314    0.0000 </r>
       <r>    9.0375    0.0000 </r>
       <r>    9.0457    0.0000 </r>
       <r>    9.6383    0.0000 </r>
      </set>
      <set comment="kpoint 28">
       <r>   -5.4784    1.0000 </r>
       <r>   -4.4264    1.0000 </r>
       <r>   -3.8251    1.0000 </r>
       <r>   -3.8154    1.0000 </r>
       <r>   -0.9901    1.0000 </r>
       <r>   -0.9760    1.0000 </r>
       <r>    0.9686    1.0000 </r>
       <r>    2.8756    1.0000 </r>
       <r>    3.2251    1.0000 </r>
       <r>    3.5212    1.0000 </r>
       <r>    3.7866    1.0000 </r>
       <r>    3.7964    1.0000 </r>
       <r>    4.3118    1.0000 </r>
       <r>    4.3153    1.0000 </r>
       <r>    4.4223    1.0000 </r>
       <r>    4.4616    1.0000 </r>
       <r>    6.9206    0.0000 </r>
       <r>    7.6777    0.0000 </r>
       <r>    7.9014    0.0000 </r>
       <r>    7.9067    0.0000 </r>
       <r>    8.3310    0.0000 </r>
       <r>    9.0439    0.0000 </r>
       <r>    9.0488    0.0000 </r>
       <r>    9.6358    0.0000 </r>
      </set>
      <set comment="kpoint 29">
       <r>   -5.0189    1.0000 </r>
       <r>   -5.0098    1.0000 </r>
       <r>   -3.7760    1.0000 </r>
       <r>   -3.7667    1.0000 </r>
       <r>   -1.1462    1.0000 </r>
       <r>   -1.1323    1.0000 </r>
       <r>    1.9459    1.0000 </r>
       <r>    1.9517    1.0000 </r>
       <r>    3.7740    1.0000 </r>
       <r>    3.7842    1.0000 </r>
       <r>    3.9204    1.0000 </r>
       <r>    3.9317    1.0000 </r>
       <r>    3.9916    1.0000 </r>
       <r>    4.0013    1.0000 </r>
       <r>    4.4263    1.0000 </r>
       <r>    4.4363    1.0000 </r>
       <r>    7.2573    0.0000 </r>
       <r>    7.2622    0.0000 </r>
       <r>    7.7566    0.0000 </r>
       <r>    7.7596    0.0000 </r>
       <r>    8.9887    0.0000 </r>
       <r>    9.0022    0.0000 </r>
       <r>    9.1444    0.0000 </r>
       <r>    9.1491    0.0000 </r>
      </set>
      <set comment="kpoint 30">
       <r>   -5.9961    1.0000 </r>
       <r>   -4.7428    1.0000 </r>
       <r>   -3.3087    1.0000 </r>
       <r>   -2.0049    1.0000 </r>
       <r>   -1.9722    1.0000 </r>
       <r>   -0.5728    1.0000 </r>
       <r>    1.2521    1.0000 </r>
       <r>    1.5845    1.0000 </r>
       <r>    2.5091    1.0000 </r>
       <r>    2.5848    1.0000 </r>
       <r>    2.8217    1.0000 </r>
       <r>    3.5586    1.0000 </r>
       <r>    4.5027    1.0000 </r>
       <r>    4.8730    1.0000 </r>
       <r>    5.2172    1.0000 </r>
       <r>    5.2318    1.0000 </r>
       <r>    7.2024    0.0000 </r>
       <r>    7.3149    0.0000 </r>
       <r>    7.9712    0.0000 </r>
       <r>    8.2824    0.0000 </r>
       <r>    8.7569    0.0000 </r>
       <r>    9.0353    0.0000 </r>
       <r>    9.0421    0.0000 </r>
       <r>    9.2394    0.0000 </r>
      </set>
      <set comment="kpoint 31">
       <r>   -5.9961    1.0000 </r>
       <r>   -4.7428    1.0000 </r>
       <r>   -3.3087    1.0000 </r>
       <r>   -2.0050    1.0000 </r>
       <r>   -1.9721    1.0000 </r>
       <r>   -0.5728    1.0000 </r>
       <r>    1.2521    1.0000 </r>
       <r>    1.5845    1.0000 </r>
       <r>    2.5091    1.0000 </r>
       <r>    2.5848    1.0000 </r>
       <r>    2.8217    1.0000 </r>
       <r>    3.5586    1.0000 </r>
       <r>    4.5027    1.0000 </r>
       <r>    4.8728    1.0000 </r>
       <r>    5.2213    1.0000 </r>
       <r>    5.2279    1.0000 </r>
       <r>    7.2024    0.0000 </r>
       <r>    7.3149    0.0000 </r>
       <r>    7.9712    0.0000 </r>
       <r>    8.2825    0.0000 </r>
       <r>    8.7569    0.0000 </r>
       <r>    9.0370    0.0000 </r>
       <r>    9.0404    0.0000 </r>
       <r>    9.2393    0.0000 </r>
      </set>
      <set comment="kpoint 32">
       <r>   -5.9290    1.0000 </r>
       <r>   -4.6876    1.0000 </r>
       <r>   -3.3355    1.0000 </r>
       <r>   -2.8640    1.0000 </r>
       <r>   -1.0582    1.0000 </r>
       <r>   -0.7411    1.0000 </r>
       <r>    0.8755    1.0000 </r>
       <r>    1.8985    1.0000 </r>
       <r>    2.5279    1.0000 </r>
       <r>    2.7234    1.0000 </r>
       <r>    3.2365    1.0000 </r>
       <r>    3.6252    1.0000 </r>
       <r>    4.2715    1.0000 </r>
       <r>    4.4689    1.0000 </r>
       <r>    4.9627    1.0000 </r>
       <r>    5.5603    1.0000 </r>
       <r>    7.1512    0.0000 </r>
       <r>    7.5357    0.0000 </r>
       <r>    8.3215    0.0000 </r>
       <r>    8.3402    0.0000 </r>
       <r>    8.4543    0.0000 </r>
       <r>    8.7394    0.0000 </r>
       <r>    8.9119    0.0000 </r>
       <r>    9.2429    0.0000 </r>
      </set>
      <set comment="kpoint 33">
       <r>   -5.9290    1.0000 </r>
       <r>   -4.6876    1.0000 </r>
       <r>   -3.3354    1.0000 </r>
       <r>   -2.8632    1.0000 </r>
       <r>   -1.0598    1.0000 </r>
       <r>   -0.7409    1.0000 </r>
       <r>    0.8762    1.0000 </r>
       <r>    1.8970    1.0000 </r>
       <r>    2.5276    1.0000 </r>
       <r>    2.7248    1.0000 </r>
       <r>    3.2344    1.0000 </r>
       <r>    3.6268    1.0000 </r>
       <r>    4.2762    1.0000 </r>
       <r>    4.4703    1.0000 </r>
       <r>    4.9626    1.0000 </r>
       <r>    5.5543    1.0000 </r>
       <r>    7.1505    0.0000 </r>
       <r>    7.5361    0.0000 </r>
       <r>    8.3221    0.0000 </r>
       <r>    8.3404    0.0000 </r>
       <r>    8.4543    0.0000 </r>
       <r>    8.7398    0.0000 </r>
       <r>    8.9106    0.0000 </r>
       <r>    9.2466    0.0000 </r>
      </set>
      <set comment="kpoint 34">
       <r>   -5.9289    1.0000 </r>
       <r>   -4.6886    1.0000 </r>
       <r>   -3.3321    1.0000 </r>
       <r>   -2.8650    1.0000 </r>
       <r>   -1.0563    1.0000 </r>
       <r>   -0.7498    1.0000 </r>
       <r>    0.8830    1.0000 </r>
       <r>    1.9030    1.0000 </r>
       <r>    2.5270    1.0000 </r>
       <r>    2.7231    1.0000 </r>
       <r>    3.2280    1.0000 </r>
       <r>    3.6261    1.0000 </r>
       <r>    4.2655    1.0000 </r>
       <r>    4.4716    1.0000 </r>
       <r>    4.9644    1.0000 </r>
       <r>    5.5662    1.0000 </r>
       <r>    7.1520    0.0000 </r>
       <r>    7.5353    0.0000 </r>
       <r>    8.3204    0.0000 </r>
       <r>    8.3393    0.0000 </r>
       <r>    8.4474    0.0000 </r>
       <r>    8.7428    0.0000 </r>
       <r>    8.9098    0.0000 </r>
       <r>    9.2476    0.0000 </r>
      </set>
      <set comment="kpoint 35">
       <r>   -5.9288    1.0000 </r>
       <r>   -4.6885    1.0000 </r>
       <r>   -3.3322    1.0000 </r>
       <r>   -2.8658    1.0000 </r>
       <r>   -1.0547    1.0000 </r>
       <r>   -0.7499    1.0000 </r>
       <r>    0.8824    1.0000 </r>
       <r>    1.9045    1.0000 </r>
       <r>    2.5273    1.0000 </r>
       <r>    2.7217    1.0000 </r>
       <r>    3.2300    1.0000 </r>
       <r>    3.6246    1.0000 </r>
       <r>    4.2609    1.0000 </r>
       <r>    4.4703    1.0000 </r>
       <r>    4.9645    1.0000 </r>
       <r>    5.5721    1.0000 </r>
       <r>    7.1527    0.0000 </r>
       <r>    7.5349    0.0000 </r>
       <r>    8.3185    0.0000 </r>
       <r>    8.3406    0.0000 </r>
       <r>    8.4473    0.0000 </r>
       <r>    8.7425    0.0000 </r>
       <r>    8.9110    0.0000 </r>
       <r>    9.2438    0.0000 </r>
      </set>
      <set comment="kpoint 36">
       <r>   -5.7281    1.0000 </r>
       <r>   -4.5269    1.0000 </r>
       <r>   -3.6588    1.0000 </r>
       <r>   -3.4409    1.0000 </r>
       <r>   -0.9859    1.0000 </r>
       <r>   -0.1056    1.0000 </r>
       <r>    0.2353    1.0000 </r>
       <r>    2.5709    1.0000 </r>
       <r>    2.6672    1.0000 </r>
       <r>    3.0547    1.0000 </r>
       <r>    3.4514    1.0000 </r>
       <r>    3.8320    1.0000 </r>
       <r>    3.9369    1.0000 </r>
       <r>    4.3602    1.0000 </r>
       <r>    4.4169    1.0000 </r>
       <r>    5.4678    1.0000 </r>
       <r>    7.2123    0.0000 </r>
       <r>    7.9816    0.0000 </r>
       <r>    8.0640    0.0000 </r>
       <r>    8.4737    0.0000 </r>
       <r>    8.5302    0.0000 </r>
       <r>    8.8137    0.0000 </r>
       <r>    9.0540    0.0000 </r>
       <r>    9.1265    0.0000 </r>
      </set>
      <set comment="kpoint 37">
       <r>   -5.7282    1.0000 </r>
       <r>   -4.5271    1.0000 </r>
       <r>   -3.6582    1.0000 </r>
       <r>   -3.4408    1.0000 </r>
       <r>   -0.9859    1.0000 </r>
       <r>   -0.1078    1.0000 </r>
       <r>    0.2360    1.0000 </r>
       <r>    2.5678    1.0000 </r>
       <r>    2.6672    1.0000 </r>
       <r>    3.0569    1.0000 </r>
[...]
       <r>   -3.3210    1.0000 </r>
       <r>   -2.9995    1.0000 </r>
       <r>   -1.0535    1.0000 </r>
       <r>   -1.0178    1.0000 </r>
       <r>   -0.6940    1.0000 </r>
       <r>   -0.6678    1.0000 </r>
       <r>    1.7794    1.0000 </r>
       <r>    2.0804    1.0000 </r>
       <r>    2.5394    1.0000 </r>
       <r>    2.8919    1.0000 </r>
       <r>    3.2803    1.0000 </r>
       <r>    3.4521    1.0000 </r>
       <r>    3.8975    1.0000 </r>
       <r>    3.9463    1.0000 </r>
       <r>    7.6740    0.0000 </r>
       <r>    7.7466    0.0000 </r>
       <r>    8.0286    0.0000 </r>
       <r>    8.1812    0.0000 </r>
       <r>    9.5220    0.0000 </r>
       <r>   10.0191    0.0000 </r>
       <r>   10.1722    0.0000 </r>
       <r>   10.6566    0.0000 </r>
      </set>
      <set comment="kpoint 219">
       <r>   -3.7348    1.0000 </r>
       <r>   -3.4213    1.0000 </r>
       <r>   -3.3185    1.0000 </r>
       <r>   -3.0030    1.0000 </r>
       <r>   -1.0452    1.0000 </r>
       <r>   -1.0129    1.0000 </r>
       <r>   -0.7011    1.0000 </r>
       <r>   -0.6719    1.0000 </r>
       <r>    1.7795    1.0000 </r>
       <r>    2.0798    1.0000 </r>
       <r>    2.5389    1.0000 </r>
       <r>    2.8913    1.0000 </r>
       <r>    3.2844    1.0000 </r>
       <r>    3.4487    1.0000 </r>
       <r>    3.9019    1.0000 </r>
       <r>    3.9432    1.0000 </r>
       <r>    7.6707    0.0000 </r>
       <r>    7.7435    0.0000 </r>
       <r>    8.0312    0.0000 </r>
       <r>    8.1839    0.0000 </r>
       <r>    9.5258    0.0000 </r>
       <r>   10.0214    0.0000 </r>
       <r>   10.1692    0.0000 </r>
       <r>   10.6490    0.0000 </r>
      </set>
      <set comment="kpoint 220">
       <r>   -3.5473    1.0000 </r>
       <r>   -3.5398    1.0000 </r>
       <r>   -3.1343    1.0000 </r>
       <r>   -3.1260    1.0000 </r>
       <r>   -0.9710    1.0000 </r>
       <r>   -0.9610    1.0000 </r>
       <r>   -0.9455    1.0000 </r>
       <r>   -0.9394    1.0000 </r>
       <r>    1.9077    1.0000 </r>
       <r>    1.9137    1.0000 </r>
       <r>    2.7593    1.0000 </r>
       <r>    2.7675    1.0000 </r>
       <r>    3.3218    1.0000 </r>
       <r>    3.3292    1.0000 </r>
       <r>    3.9851    1.0000 </r>
       <r>    3.9876    1.0000 </r>
       <r>    8.3945    0.0000 </r>
       <r>    8.3991    0.0000 </r>
       <r>    8.7302    0.0000 </r>
       <r>    8.7416    0.0000 </r>
       <r>    9.0379    0.0000 </r>
       <r>    9.0499    0.0000 </r>
       <r>    9.4001    0.0000 </r>
       <r>    9.4062    0.0000 </r>
      </set>
      <set comment="kpoint 221">
       <r>   -3.5475    1.0000 </r>
       <r>   -3.5396    1.0000 </r>
       <r>   -3.1339    1.0000 </r>
       <r>   -3.1264    1.0000 </r>
       <r>   -0.9714    1.0000 </r>
       <r>   -0.9602    1.0000 </r>
       <r>   -0.9439    1.0000 </r>
       <r>   -0.9414    1.0000 </r>
       <r>    1.9078    1.0000 </r>
       <r>    1.9136    1.0000 </r>
       <r>    2.7592    1.0000 </r>
       <r>    2.7677    1.0000 </r>
       <r>    3.3242    1.0000 </r>
       <r>    3.3268    1.0000 </r>
       <r>    3.9821    1.0000 </r>
       <r>    3.9905    1.0000 </r>
       <r>    8.3925    0.0000 </r>
       <r>    8.4011    0.0000 </r>
       <r>    8.7333    0.0000 </r>
       <r>    8.7384    0.0000 </r>
       <r>    9.0415    0.0000 </r>
       <r>    9.0464    0.0000 </r>
       <r>    9.3980    0.0000 </r>
       <r>    9.4084    0.0000 </r>
      </set>
     </set>
    </set>
   </array>
  </eigenvalues>
  <separator name="orbital magnetization" >
   <v name="MAGDIPOLOUT">      0.00000000      0.00000000      0.00000000</v>
  </separator>
  <dos>
   <i name="efermi">      5.83554696 </i>
   <total>
    <array>
     <dimension dim="1">gridpoints</dimension>
     <dimension dim="2">spin</dimension>
     <field>energy</field>
     <field>total</field>
     <field>integrated</field>
     <set>
      <set comment="spin 1">
       <r>    -6.9955     0.0000     0.0000 </r>
       <r>    -6.9339     0.0000     0.0000 </r>
       <r>    -6.8722     0.0000     0.0000 </r>
       <r>    -6.8106     0.0000     0.0000 </r>
       <r>    -6.7489     0.0000     0.0000 </r>
       <r>    -6.6873     0.0000     0.0000 </r>
       <r>    -6.6256     0.0000     0.0000 </r>
       <r>    -6.5640     0.0000     0.0000 </r>
       <r>    -6.5023     0.0000     0.0000 </r>
       <r>    -6.4407     0.0000     0.0000 </r>
       <r>    -6.3790     0.0000     0.0000 </r>
       <r>    -6.3174     0.0000     0.0000 </r>
       <r>    -6.2557     0.0000     0.0000 </r>
       <r>    -6.1941     0.0000     0.0000 </r>
       <r>    -6.1324     0.0737     0.0045 </r>
       <r>    -6.0708     0.3384     0.0254 </r>
       <r>    -6.0091     0.3858     0.0492 </r>
       <r>    -5.9475     0.6055     0.0865 </r>
       <r>    -5.8858     0.6440     0.1262 </r>
       <r>    -5.8242     0.2591     0.1422 </r>
       <r>    -5.7625     1.3064     0.2227 </r>
       <r>    -5.7009     1.7585     0.3312 </r>
       <r>    -5.6392     0.5996     0.3682 </r>
       <r>    -5.5776     0.2949     0.3864 </r>
       <r>    -5.5159     1.1644     0.4582 </r>
       <r>    -5.4542     2.0310     0.5834 </r>
       <r>    -5.3926     1.0605     0.6488 </r>
       <r>    -5.3309     0.9569     0.7078 </r>
       <r>    -5.2693     1.0282     0.7712 </r>
       <r>    -5.2076     1.5754     0.8683 </r>
       <r>    -5.1460     1.9792     0.9903 </r>
       <r>    -5.0843     1.3052     1.0708 </r>
       <r>    -5.0227     1.4717     1.1615 </r>
       <r>    -4.9610     0.9085     1.2175 </r>
       <r>    -4.8994     2.3888     1.3649 </r>
       <r>    -4.8377     1.7657     1.4737 </r>
       <r>    -4.7761     1.0659     1.5395 </r>
       <r>    -4.7144     2.8012     1.7122 </r>
       <r>    -4.6528     2.0895     1.8410 </r>
       <r>    -4.5911     1.4377     1.9297 </r>
       <r>    -4.5295     1.2341     2.0057 </r>
       <r>    -4.4678     2.8347     2.1805 </r>
       <r>    -4.4062     2.7930     2.3527 </r>
       <r>    -4.3445     1.7958     2.4635 </r>
       <r>    -4.2829     1.5389     2.5584 </r>
       <r>    -4.2212     1.8567     2.6728 </r>
       <r>    -4.1596     4.0974     2.9254 </r>
       <r>    -4.0979     2.0174     3.0499 </r>
       <r>    -4.0363     3.3884     3.2588 </r>
       <r>    -3.9746     2.2488     3.3975 </r>
       <r>    -3.9130     3.4040     3.6074 </r>
       <r>    -3.8513     1.4389     3.6962 </r>
       <r>    -3.7897     3.4842     3.9110 </r>
       <r>    -3.7280     3.7275     4.1408 </r>
       <r>    -3.6664     5.4652     4.4777 </r>
       <r>    -3.6047     3.2613     4.6788 </r>
       <r>    -3.5431     1.3797     4.7639 </r>
       <r>    -3.4814     3.0462     4.9517 </r>
       <r>    -3.4198     4.7377     5.2439 </r>
       <r>    -3.3581     3.2836     5.4464 </r>
       <r>    -3.2965     4.1752     5.7038 </r>
       <r>    -3.2348     1.2578     5.7814 </r>
       <r>    -3.1732     1.1078     5.8497 </r>
       <r>    -3.1115     2.8867     6.0276 </r>
       <r>    -3.0499     2.7897     6.1996 </r>
       <r>    -2.9882     2.3957     6.3473 </r>
       <r>    -2.9266     2.5378     6.5038 </r>
       <r>    -2.8649     2.8538     6.6798 </r>
       <r>    -2.8033     2.4652     6.8318 </r>
       <r>    -2.7416     3.8983     7.0721 </r>
       <r>    -2.6800     1.8530     7.1864 </r>
       <r>    -2.6183     1.4612     7.2765 </r>
       <r>    -2.5567     1.0877     7.3435 </r>
       <r>    -2.4950     0.2528     7.3591 </r>
       <r>    -2.4334     1.7144     7.4648 </r>
       <r>    -2.3717     2.9083     7.6441 </r>
       <r>    -2.3101     0.9183     7.7007 </r>
       <r>    -2.2484     1.3887     7.7863 </r>
       <r>    -2.1868     1.4555     7.8761 </r>
       <r>    -2.1251     0.4997     7.9069 </r>
       <r>    -2.0635     0.5004     7.9378 </r>
       <r>    -2.0018     0.6911     7.9804 </r>
       <r>    -1.9402     0.8908     8.0353 </r>
       <r>    -1.8785     0.0901     8.0409 </r>
       <r>    -1.8169     0.2944     8.0591 </r>
       <r>    -1.7552     0.2931     8.0772 </r>
       <r>    -1.6936     0.8521     8.1297 </r>
       <r>    -1.6319     1.7695     8.2388 </r>
       <r>    -1.5703     2.4959     8.3927 </r>
       <r>    -1.5086     0.7148     8.4367 </r>
       <r>    -1.4469     0.4537     8.4647 </r>
       <r>    -1.3853     2.1245     8.5957 </r>
       <r>    -1.3236     0.8803     8.6500 </r>
       <r>    -1.2620     0.0493     8.6530 </r>
       <r>    -1.2003     1.9290     8.7720 </r>
       <r>    -1.1387     2.9775     8.9556 </r>
       <r>    -1.0770     6.5011     9.3564 </r>
       <r>    -1.0154     6.7151     9.7705 </r>
       <r>    -0.9537     7.1757    10.2129 </r>
       <r>    -0.8921     4.4880    10.4896 </r>
       <r>    -0.8304     5.6372    10.8372 </r>
       <r>    -0.7688     3.4403    11.0493 </r>
       <r>    -0.7071     3.3164    11.2538 </r>
       <r>    -0.6455     2.3864    11.4009 </r>
       <r>    -0.5838     0.5227    11.4332 </r>
       <r>    -0.5222     3.8867    11.6728 </r>
       <r>    -0.4605     2.0580    11.7998 </r>
       <r>    -0.3989     3.2345    11.9992 </r>
       <r>    -0.3372     2.3909    12.1466 </r>
       <r>    -0.2756     2.7625    12.3169 </r>
       <r>    -0.2139     3.1502    12.5112 </r>
       <r>    -0.1523     1.0518    12.5760 </r>
       <r>    -0.0906     2.2838    12.7168 </r>
       <r>    -0.0290     3.1613    12.9117 </r>
       <r>     0.0327     1.5659    13.0083 </r>
       <r>     0.0943     1.3448    13.0912 </r>
       <r>     0.1560     0.6589    13.1319 </r>
       <r>     0.2176     0.7528    13.1783 </r>
       <r>     0.2793     2.9405    13.3596 </r>
       <r>     0.3409     2.4655    13.5116 </r>
       <r>     0.4026     0.7704    13.5591 </r>
       <r>     0.4642     1.2860    13.6384 </r>
       <r>     0.5259     1.0730    13.7045 </r>
       <r>     0.5875     0.7519    13.7509 </r>
       <r>     0.6492     2.9974    13.9357 </r>
       <r>     0.7108     0.3946    13.9601 </r>
       <r>     0.7725     0.4273    13.9864 </r>
       <r>     0.8341     1.1256    14.0558 </r>
       <r>     0.8958     2.6292    14.2179 </r>
       <r>     0.9574     0.6765    14.2597 </r>
       <r>     1.0191     1.7467    14.3674 </r>
       <r>     1.0807     0.3058    14.3863 </r>
       <r>     1.1424     0.8792    14.4405 </r>
       <r>     1.2040     0.7423    14.4863 </r>
       <r>     1.2657     1.7426    14.5937 </r>
       <r>     1.3273     1.0600    14.6591 </r>
       <r>     1.3890     0.4234    14.6852 </r>
       <r>     1.4506     1.9416    14.8049 </r>
       <r>     1.5123     2.9464    14.9866 </r>
       <r>     1.5739     2.3462    15.1312 </r>
       <r>     1.6356     3.7787    15.3642 </r>
       <r>     1.6972     5.1647    15.6827 </r>
       <r>     1.7589     5.3395    16.0120 </r>
       <r>     1.8205     4.0198    16.2599 </r>
       <r>     1.8822     5.5920    16.6048 </r>
       <r>     1.9438     6.0251    16.9763 </r>
       <r>     2.0055     2.9844    17.1604 </r>
       <r>     2.0671     2.0565    17.2872 </r>
       <r>     2.1288     4.9362    17.5915 </r>
       <r>     2.1904     4.6641    17.8790 </r>
       <r>     2.2521     3.6217    18.1024 </r>
       <r>     2.3137     6.3269    18.4924 </r>
       <r>     2.3754     2.4092    18.6411 </r>
       <r>     2.4370     2.8136    18.8145 </r>
       <r>     2.4987     5.3735    19.1458 </r>
       <r>     2.5603     3.5982    19.3677 </r>
       <r>     2.6220     5.9599    19.7352 </r>
       <r>     2.6837     4.9120    20.0380 </r>
       <r>     2.7453     3.8568    20.2758 </r>
       <r>     2.8070     5.7712    20.6317 </r>
       <r>     2.8686     5.2721    20.9568 </r>
       <r>     2.9303     6.8789    21.3809 </r>
       <r>     2.9919     5.3312    21.7097 </r>
       <r>     3.0536     4.9800    22.0167 </r>
       <r>     3.1152     6.7882    22.4352 </r>
       <r>     3.1769     4.2881    22.6996 </r>
       <r>     3.2385     7.3475    23.1526 </r>
       <r>     3.3002     5.4553    23.4889 </r>
       <r>     3.3618     6.0485    23.8619 </r>
       <r>     3.4235     5.0761    24.1749 </r>
       <r>     3.4851     8.0754    24.6729 </r>
       <r>     3.5468     4.9029    24.9752 </r>
       <r>     3.6084     4.0472    25.2248 </r>
       <r>     3.6701     4.1531    25.4809 </r>
       <r>     3.7317     4.5627    25.7622 </r>
       <r>     3.7934     6.6636    26.1731 </r>
       <r>     3.8550     5.9302    26.5388 </r>
       <r>     3.9167     4.7842    26.8338 </r>
       <r>     3.9783     7.5797    27.3012 </r>
       <r>     4.0400     4.4286    27.5743 </r>
       <r>     4.1016     3.9924    27.8205 </r>
       <r>     4.1633     4.0003    28.0672 </r>
       <r>     4.2249     5.1568    28.3851 </r>
       <r>     4.2866     4.6784    28.6736 </r>
       <r>     4.3482     4.0405    28.9227 </r>
       <r>     4.4099     4.6863    29.2117 </r>
       <r>     4.4715     4.3294    29.4788 </r>
       <r>     4.5332     6.4247    29.8749 </r>
       <r>     4.5948     3.3118    30.0791 </r>
       <r>     4.6565     3.8416    30.3159 </r>
       <r>     4.7181     3.5274    30.5334 </r>
       <r>     4.7798     2.4110    30.6821 </r>
       <r>     4.8414     0.6695    30.7234 </r>
       <r>     4.9031     3.2683    30.9249 </r>
       <r>     4.9647     1.7784    31.0345 </r>
       <r>     5.0264     4.4846    31.3110 </r>
       <r>     5.0880     1.8719    31.4265 </r>
       <r>     5.1497     1.0096    31.4887 </r>
       <r>     5.2113     1.2748    31.5674 </r>
       <r>     5.2730     0.7958    31.6165 </r>
       <r>     5.3346     1.1546    31.6876 </r>
       <r>     5.3963     0.6880    31.7301 </r>
       <r>     5.4579     0.8707    31.7837 </r>
       <r>     5.5196     1.5169    31.8773 </r>
       <r>     5.5812     1.1635    31.9490 </r>
       <r>     5.6429     0.3108    31.9682 </r>
       <r>     5.7045     0.0496    31.9712 </r>
       <r>     5.7662     0.4268    31.9976 </r>
       <r>     5.8278     0.0396    32.0000 </r>
       <r>     5.8895     0.0000    32.0000 </r>
       <r>     5.9511     0.0000    32.0000 </r>
       <r>     6.0128     0.0000    32.0000 </r>
       <r>     6.0744     0.0000    32.0000 </r>
       <r>     6.1361     0.0000    32.0000 </r>
       <r>     6.1977     0.0000    32.0000 </r>
       <r>     6.2594     0.0000    32.0000 </r>
       <r>     6.3210     0.0000    32.0000 </r>
       <r>     6.3827     0.2292    32.0141 </r>
       <r>     6.4443     0.6616    32.0549 </r>
       <r>     6.5060     0.4363    32.0818 </r>
       <r>     6.5676     0.3677    32.1045 </r>
       <r>     6.6293     1.2280    32.1802 </r>
       <r>     6.6910     2.2204    32.3171 </r>
       <r>     6.7526     1.4492    32.4065 </r>
       <r>     6.8143     0.9837    32.4671 </r>
       <r>     6.8759     0.5346    32.5001 </r>
       <r>     6.9376     2.4840    32.6533 </r>
       <r>     6.9992     1.6719    32.7564 </r>
       <r>     7.0609     1.8963    32.8733 </r>
       <r>     7.1225     2.6453    33.0364 </r>
       <r>     7.1842     2.7491    33.2059 </r>
       <r>     7.2458     1.9527    33.3263 </r>
       <r>     7.3075     2.6802    33.4916 </r>
       <r>     7.3691     3.2079    33.6894 </r>
       <r>     7.4308     2.7722    33.8603 </r>
       <r>     7.4924     3.5613    34.0799 </r>
       <r>     7.5541     4.2601    34.3426 </r>
       <r>     7.6157     3.2532    34.5433 </r>
       <r>     7.6774     4.1849    34.8014 </r>
       <r>     7.7390     6.7468    35.2174 </r>
       <r>     7.8007     4.7025    35.5075 </r>
       <r>     7.8623     5.0410    35.8182 </r>
       <r>     7.9240     5.6895    36.1690 </r>
       <r>     7.9856     3.6391    36.3934 </r>
       <r>     8.0473     6.3086    36.7824 </r>
       <r>     8.1089     8.1304    37.2837 </r>
       <r>     8.1706     6.7504    37.7001 </r>
       <r>     8.2322     4.3164    37.9662 </r>
       <r>     8.2939     5.4566    38.3026 </r>
       <r>     8.3555     5.8218    38.6615 </r>
       <r>     8.4172     5.9494    39.0283 </r>
       <r>     8.4788     5.1782    39.3476 </r>
       <r>     8.5405     3.8493    39.5850 </r>
       <r>     8.6021     4.0543    39.8349 </r>
       <r>     8.6638     4.8098    40.1315 </r>
       <r>     8.7254     4.3820    40.4016 </r>
       <r>     8.7871     3.8525    40.6391 </r>
       <r>     8.8487     4.9859    40.9465 </r>
       <r>     8.9104     5.0569    41.2583 </r>
       <r>     8.9720     5.6420    41.6061 </r>
       <r>     9.0337     6.9900    42.0371 </r>
       <r>     9.0953    11.3238    42.7353 </r>
       <r>     9.1570     5.7088    43.0873 </r>
       <r>     9.2186     8.5810    43.6164 </r>
       <r>     9.2803     7.9443    44.1062 </r>
       <r>     9.3419     5.0225    44.4158 </r>
       <r>     9.4036     7.3924    44.8717 </r>
       <r>     9.4652     7.2186    45.3168 </r>
       <r>     9.5269     5.6210    45.6634 </r>
       <r>     9.5885     6.6559    46.0738 </r>
       <r>     9.6502     2.7256    46.2418 </r>
       <r>     9.7118     3.8449    46.4789 </r>
       <r>     9.7735     3.5493    46.6977 </r>
       <r>     9.8351     1.2571    46.7753 </r>
       <r>     9.8968     2.6776    46.9404 </r>
       <r>     9.9584     2.4769    47.0932 </r>
       <r>    10.0201     1.1246    47.1625 </r>
       <r>    10.0817     2.9677    47.3454 </r>
       <r>    10.1434     0.9648    47.4050 </r>
       <r>    10.2050     3.8902    47.6448 </r>
       <r>    10.2667     1.2288    47.7206 </r>
       <r>    10.3283     0.5506    47.7545 </r>
       <r>    10.3900     0.4562    47.7827 </r>
       <r>    10.4516     1.4813    47.8740 </r>
       <r>    10.5133     1.2416    47.9505 </r>
       <r>    10.5749     0.2123    47.9636 </r>
       <r>    10.6366     0.0228    47.9650 </r>
       <r>    10.6983     0.5671    48.0000 </r>
       <r>    10.7599     0.0000    48.0000 </r>
       <r>    10.8216     0.0000    48.0000 </r>
       <r>    10.8832     0.0000    48.0000 </r>
       <r>    10.9449     0.0000    48.0000 </r>
       <r>    11.0065     0.0000    48.0000 </r>
       <r>    11.0682     0.0000    48.0000 </r>
       <r>    11.1298     0.0000    48.0000 </r>
       <r>    11.1915     0.0000    48.0000 </r>
       <r>    11.2531     0.0000    48.0000 </r>
       <r>    11.3148     0.0000    48.0000 </r>
       <r>    11.3764     0.0000    48.0000 </r>
       <r>    11.4381     0.0000    48.0000 </r>
       <r>    11.4997     0.0000    48.0000 </r>
      </set>
     </set>
    </array>
   </total>
  </dos>
 </calculation>
 <structure name="finalpos" >
  <crystal>
   <varray name="basis" >
    <v>      -0.00000000      -0.00000000       5.44370237 </v>
    <v>       5.44370237      -5.44370237       0.00000000 </v>
    <v>       2.72185119       2.72185119       0.00000000 </v>
   </varray>
   <i name="volume">    161.31810740 </i>
   <varray name="rec_basis" >
    <v>      -0.00000000       0.00000000       0.18369851 </v>
    <v>       0.09184925      -0.09184925      -0.00000000 </v>
    <v>       0.18369851       0.18369851       0.00000000 </v>
   </varray>
  </crystal>
  <varray name="positions" >
   <v>       0.00098191       0.00098191       0.00098191 </v>
   <v>       0.50000000       0.75000000       0.50000000 </v>
   <v>       0.00000000       0.50000000       0.00000000 </v>
   <v>       0.50000000       0.25000000       0.50000000 </v>
   <v>       0.25000000       0.00000000       0.50000000 </v>
   <v>       0.75000000       0.75000000       0.00000000 </v>
   <v>       0.25000000       0.50000000       0.50000000 </v>
   <v>       0.75000000       0.25000000       0.00000000 </v>
  </varray>
 </structure>
</modeling>
