24   
2    

1    
  0.0041130178726742   0.0042743735567463   0.0080506406376418
  -0.0165335200   -0.0125219100   -0.0291888800
   0.0067841200    0.0047350400   -0.0011568500
   0.0001150300    0.0000672500    0.0000121500
   0.0067211500    0.0046530500   -0.0010934600
  -0.0000162500   -0.0000112300    0.0002019100
   0.0000020700    0.0000006200    0.0000002600
   0.0000008000    0.0000000300   -0.0000117400
   0.0000059200    0.0000029100    0.0000026800
  -0.0000037300   -0.0000039900    0.0001877200
   0.0000010400    0.0000000500    0.0000063900
  -0.0000017000   -0.0000014200   -0.0000095800
  -0.0000028000   -0.0000021900    0.0000026600
   0.0032282800    0.0027213700    0.0133343100
   0.0001149400    0.0000850200    0.0000805500
   0.0000194200    0.0000144000   -0.0000228200
  -0.0018438800   -0.0012211400    0.0023607300
  -0.0000006400   -0.0000010700   -0.0000018200
  -0.0000018100   -0.0000016800   -0.0000080600
  -0.0000015900   -0.0000015900   -0.0000104600
  -0.0000011100   -0.0000012100   -0.0000016000
  -0.0035372800   -0.0012471700    0.0075265800
  -0.0000132400    0.0000102900   -0.0000240200
   0.0001462900    0.0000875600    0.0000817300
   0.0048184800    0.0026370100    0.0077316100

1    
 -0.0041130178726742  -0.0042743735567463  -0.0080506406376418
   0.0166187200    0.0125308500    0.0292654600
  -0.0067205000   -0.0046527400    0.0010870900
  -0.0001147200   -0.0000672600   -0.0000152000
  -0.0067836300   -0.0047348100    0.0011503300
   0.0000149300    0.0000103700   -0.0001996800
  -0.0000022000   -0.0000009000   -0.0000017800
  -0.0000012000   -0.0000004000    0.0000091400
  -0.0000062300   -0.0000031700   -0.0000056200
   0.0000037200    0.0000038900   -0.0001944700
  -0.0000016800   -0.0000005600   -0.0000094200
   0.0000013200    0.0000010500    0.0000070700
   0.0000019400    0.0000015100   -0.0000069300
  -0.0031607800   -0.0026055400   -0.0128794500
  -0.0001144900   -0.0000835900   -0.0000819300
  -0.0000191000   -0.0000143700    0.0000207200
   0.0018410600    0.0012134700   -0.0023901100
   0.0000002000    0.0000005900   -0.0000003800
   0.0000013300    0.0000013500    0.0000058800
   0.0000011100    0.0000010900    0.0000082200
   0.0000006600    0.0000008200   -0.0000006200
   0.0036336300    0.0012560500   -0.0075975800
   0.0000124900   -0.0000109800    0.0000219800
  -0.0001512000   -0.0000907300   -0.0000863100
  -0.0050553600   -0.0027560200   -0.0081063900
