phonopy:
  version: "2.33.3"
  calculator: vasp
  frequency_unit_conversion_factor: 15.633302
  symmetry_tolerance: 1.00000e-05
  configuration:
    dim: "4 0 0 2 1 0 0 0 3"

physical_unit:
  atomic_mass: "AMU"
  length: "angstrom"
  force: "eV/angstrom"
  force_constants: "eV/angstrom^2"

space_group:
  type: "P6_3/mmc"
  number: 194
  Hall_symbol: "-P 6c 2c"

supercell_matrix:
- [   4,   0,   0 ]
- [   2,   1,   0 ]
- [   0,   0,   3 ]

primitive_cell:
  lattice:
  - [     1.954294045411208,     0.000000000000000,     0.000000000000000 ] # a
  - [    -0.977147022705604,     1.692468289790766,     0.000000000000000 ] # b
  - [     0.000000000000000,     0.000000000000000,     3.187707815149744 ] # c
  points:
  - symbol: He # 1
    coordinates: [  0.333333333333333,  0.666666666666666,  0.250000000000000 ]
    mass: 4.002602
  - symbol: He # 2
    coordinates: [  0.666666666666667,  0.333333333333333,  0.750000000000000 ]
    mass: 4.002602
  reciprocal_lattice: # without 2pi
  - [     0.511693725080960,     0.295426509918135,     0.000000000000000 ] # a*
  - [     0.000000000000000,     0.590853019836269,     0.000000000000000 ] # b*
  - [     0.000000000000000,     0.000000000000000,     0.313705037597062 ] # c*

unit_cell:
  lattice:
  - [     1.954294045411208,     0.000000000000000,     0.000000000000000 ] # a
  - [    -0.977147022705604,     1.692468289790766,     0.000000000000000 ] # b
  - [     0.000000000000000,     0.000000000000000,     3.187707815149744 ] # c
  points:
  - symbol: He # 1
    coordinates: [  0.333333333333333,  0.666666666666666,  0.250000000000000 ]
    mass: 4.002602
    reduced_to: 1
  - symbol: He # 2
    coordinates: [  0.666666666666667,  0.333333333333333,  0.750000000000000 ]
    mass: 4.002602
    reduced_to: 2

supercell:
  lattice:
  - [     5.862882136233625,     3.384936579581532,     0.000000000000000 ] # a
  - [    -0.977147022705604,     1.692468289790766,     0.000000000000000 ] # b
  - [     0.000000000000000,     0.000000000000000,     9.563123445449232 ] # c
  points:
  - symbol: He # 1
    coordinates: [  0.083333333333333,  0.500000000000000,  0.083333333333333 ]
    mass: 4.002602
    reduced_to: 1
  - symbol: He # 2
    coordinates: [  0.333333333333333,  1.000000000000000,  0.083333333333333 ]
    mass: 4.002602
    reduced_to: 1
  - symbol: He # 3
    coordinates: [  0.583333333333333,  0.500000000000000,  0.083333333333333 ]
    mass: 4.002602
    reduced_to: 1
  - symbol: He # 4
    coordinates: [  0.833333333333333,  1.000000000000000,  0.083333333333333 ]
    mass: 4.002602
    reduced_to: 1
  - symbol: He # 5
    coordinates: [  0.083333333333333,  0.500000000000000,  0.416666666666667 ]
    mass: 4.002602
    reduced_to: 1
  - symbol: He # 6
    coordinates: [  0.333333333333333,  1.000000000000000,  0.416666666666667 ]
    mass: 4.002602
    reduced_to: 1
  - symbol: He # 7
    coordinates: [  0.583333333333333,  0.500000000000000,  0.416666666666667 ]
    mass: 4.002602
    reduced_to: 1
  - symbol: He # 8
    coordinates: [  0.833333333333333,  1.000000000000000,  0.416666666666667 ]
    mass: 4.002602
    reduced_to: 1
  - symbol: He # 9
    coordinates: [  0.083333333333333,  0.500000000000000,  0.750000000000000 ]
    mass: 4.002602
    reduced_to: 1
  - symbol: He # 10
    coordinates: [  0.333333333333333,  1.000000000000000,  0.750000000000000 ]
    mass: 4.002602
    reduced_to: 1
  - symbol: He # 11
    coordinates: [  0.583333333333333,  0.500000000000000,  0.750000000000000 ]
    mass: 4.002602
    reduced_to: 1
  - symbol: He # 12
    coordinates: [  0.833333333333333,  1.000000000000000,  0.750000000000000 ]
    mass: 4.002602
    reduced_to: 1
  - symbol: He # 13
    coordinates: [  0.166666666666667,  0.000000000000000,  0.250000000000000 ]
    mass: 4.002602
    reduced_to: 13
  - symbol: He # 14
    coordinates: [  0.416666666666667,  0.500000000000000,  0.250000000000000 ]
    mass: 4.002602
    reduced_to: 13
  - symbol: He # 15
    coordinates: [  0.666666666666667,  0.000000000000000,  0.250000000000000 ]
    mass: 4.002602
    reduced_to: 13
  - symbol: He # 16
    coordinates: [  0.916666666666667,  0.500000000000000,  0.250000000000000 ]
    mass: 4.002602
    reduced_to: 13
  - symbol: He # 17
    coordinates: [  0.166666666666667,  0.000000000000000,  0.583333333333333 ]
    mass: 4.002602
    reduced_to: 13
  - symbol: He # 18
    coordinates: [  0.416666666666667,  0.500000000000000,  0.583333333333333 ]
    mass: 4.002602
    reduced_to: 13
  - symbol: He # 19
    coordinates: [  0.666666666666667,  0.000000000000000,  0.583333333333333 ]
    mass: 4.002602
    reduced_to: 13
  - symbol: He # 20
    coordinates: [  0.916666666666667,  0.500000000000000,  0.583333333333333 ]
    mass: 4.002602
    reduced_to: 13
  - symbol: He # 21
    coordinates: [  0.166666666666667,  0.000000000000000,  0.916666666666667 ]
    mass: 4.002602
    reduced_to: 13
  - symbol: He # 22
    coordinates: [  0.416666666666667,  0.500000000000000,  0.916666666666667 ]
    mass: 4.002602
    reduced_to: 13
  - symbol: He # 23
    coordinates: [  0.666666666666667,  0.000000000000000,  0.916666666666667 ]
    mass: 4.002602
    reduced_to: 13
  - symbol: He # 24
    coordinates: [  0.916666666666667,  0.500000000000000,  0.916666666666667 ]
    mass: 4.002602
    reduced_to: 13

force_constants:
  format: "compact"
  shape: [ 2, 24 ]
  elements:
  - # (1, 1)
    - [     3.102386674792131,     0.892750272753050,     0.000000000000001 ]
    - [     0.892750272753048,     2.071527454205961,    -0.000000000000001 ]
    - [    -0.000000000000000,    -0.000000000000000,     3.630415430958950 ]
  - # (1, 2)
    - [    -1.183075863464550,    -0.441303925311739,     0.000000000000000 ]
    - [    -0.441303925311738,    -0.673501983318208,    -0.000000000000000 ]
    - [     0.000000000000000,     0.000000000000000,     0.139364064364528 ]
  - # (1, 3)
    - [    -0.017639960697795,    -0.009901223141787,    -0.000000000000000 ]
    - [    -0.009901223141787,    -0.006207013005361,     0.000000000000000 ]
    - [     0.000000000000000,     0.000000000000000,    -0.001698622583656 ]
  - # (1, 4)
    - [    -1.183086798489399,    -0.441312119272069,     0.000000000000000 ]
    - [    -0.441312119272068,    -0.673503456772652,    -0.000000000000000 ]
    - [     0.000000000000000,     0.000000000000000,     0.139354748335733 ]
  - # (1, 5)
    - [     0.001821698538937,     0.000506465174835,    -0.000736989260401 ]
    - [     0.000506465174835,     0.001236882928885,    -0.000425500947883 ]
    - [     0.000737159790706,     0.000425599403600,    -0.024339056830314 ]
  - # (1, 6)
    - [    -0.000171500104396,    -0.000243805786186,     0.000523110418336 ]
    - [    -0.000243805786186,     0.000110022568173,     0.000302017940842 ]
    - [    -0.000048335953273,    -0.000027906775634,    -0.000554303713314 ]
  - # (1, 7)
    - [     0.000110359876917,    -0.000046535976218,     0.000160694050077 ]
    - [    -0.000046535976218,     0.000164094993710,     0.000092776753069 ]
    - [    -0.000155911096442,    -0.000090015313500,     0.001165435202278 ]
  - # (1, 8)
    - [    -0.000187826297980,    -0.000252660902262,     0.000049005986903 ]
    - [    -0.000252660902262,     0.000103921381889,     0.000028293619730 ]
    - [    -0.000524876372741,    -0.000303037515093,    -0.000555545850487 ]
  - # (1, 9)
    - [     0.001821698538937,     0.000506465174835,     0.000736989260401 ]
    - [     0.000506465174835,     0.001236882928885,     0.000425500947883 ]
    - [    -0.000737159790706,    -0.000425599403600,    -0.024339056830314 ]
  - # (1, 10)
    - [    -0.000171500104396,    -0.000243805786186,    -0.000523110418336 ]
    - [    -0.000243805786186,     0.000110022568173,    -0.000302017940842 ]
    - [     0.000048335953273,     0.000027906775634,    -0.000554303713314 ]
  - # (1, 11)
    - [     0.000110359876917,    -0.000046535976218,    -0.000160694050077 ]
    - [    -0.000046535976218,     0.000164094993710,    -0.000092776753069 ]
    - [     0.000155911096442,     0.000090015313500,     0.001165435202278 ]
  - # (1, 12)
    - [    -0.000187826297980,    -0.000252660902262,    -0.000049005986903 ]
    - [    -0.000252660902262,     0.000103921381889,    -0.000028293619730 ]
    - [     0.000524876372741,     0.000303037515093,    -0.000555545850487 ]
  - # (1, 13)
    - [    -0.131921776939376,     0.172670712222076,    -0.421284335162251 ]
    - [     0.172670712222076,    -0.331304741304536,    -0.243228624311298 ]
    - [    -0.421100750170842,    -0.243122631467089,    -1.283684176844240 ]
  - # (1, 14)
    - [    -0.011305048868548,    -0.001035738194950,    -0.007919975309716 ]
    - [    -0.001035738194950,    -0.010109081417220,    -0.004572599877040 ]
    - [    -0.007923906400185,    -0.004574869493180,    -0.003617103446879 ]
  - # (1, 15)
    - [    -0.013409456157277,    -0.006749332218928,     0.008037741634832 ]
    - [    -0.006749332218928,    -0.005615998610381,     0.004640592296547 ]
    - [     0.008041955008402,     0.004643024888912,    -0.003866151950004 ]
  - # (1, 16)
    - [    -0.204773807497586,    -0.164933331293469,     0.421191641667644 ]
    - [    -0.164933331293469,    -0.014325201056333,     0.243175107697234 ]
    - [     0.421039553127141,     0.243087299337434,    -0.639354087665218 ]
  - # (1, 17)
    - [     0.000179795235570,    -0.000074748033385,     0.000000000000000 ]
    - [    -0.000074748033385,     0.000266106829962,    -0.000000000000000 ]
    - [    -0.000000000000000,    -0.000000000000000,     0.000089433876434 ]
  - # (1, 18)
    - [     0.000358699925939,     0.000022146120930,     0.000000000000000 ]
    - [     0.000022146120930,     0.000333127788178,    -0.000000000000000 ]
    - [    -0.000000000000000,    -0.000000000000000,     0.000865769609366 ]
  - # (1, 19)
    - [     0.000315797780052,     0.000011959199592,     0.000000000000000 ]
    - [     0.000011959199592,     0.000301988485844,    -0.000000000000000 ]
    - [    -0.000000000000000,    -0.000000000000000,     0.001160156119294 ]
  - # (1, 20)
    - [     0.000233978693524,    -0.000018098218900,     0.000000000000000 ]
    - [    -0.000018098218900,     0.000254876716631,    -0.000000000000000 ]
    - [    -0.000000000000000,    -0.000000000000000,     0.000060864721462 ]
  - # (1, 21)
    - [    -0.131921776939376,     0.172670712222076,     0.421284335162251 ]
    - [     0.172670712222076,    -0.331304741304536,     0.243228624311298 ]
    - [     0.421100750170842,     0.243122631467089,    -1.283684176844240 ]
  - # (1, 22)
    - [    -0.011305048868548,    -0.001035738194950,     0.007919975309716 ]
    - [    -0.001035738194950,    -0.010109081417220,     0.004572599877040 ]
    - [     0.007923906400185,     0.004574869493180,    -0.003617103446879 ]
  - # (1, 23)
    - [    -0.013409456157277,    -0.006749332218928,    -0.008037741634832 ]
    - [    -0.006749332218928,    -0.005615998610381,    -0.004640592296547 ]
    - [    -0.008041955008402,    -0.004643024888912,    -0.003866151950004 ]
  - # (1, 24)
    - [    -0.204773807497586,    -0.164933331293470,    -0.421191641667644 ]
    - [    -0.164933331293469,    -0.014325201056333,    -0.243175107697234 ]
    - [    -0.421039553127141,    -0.243087299337434,    -0.639354087665218 ]
  - # (2, 1)
    - [    -0.131921776939376,     0.172670712222076,    -0.421284335162251 ]
    - [     0.172670712222076,    -0.331304741304536,    -0.243228624311298 ]
    - [    -0.421100750170842,    -0.243122631467089,    -1.283684176844240 ]
  - # (2, 2)
    - [    -0.204773807497586,    -0.164933331293470,     0.421191641667644 ]
    - [    -0.164933331293469,    -0.014325201056333,     0.243175107697234 ]
    - [     0.421039553127141,     0.243087299337434,    -0.639354087665218 ]
  - # (2, 3)
    - [    -0.013409456157277,    -0.006749332218928,     0.008037741634832 ]
    - [    -0.006749332218928,    -0.005615998610381,     0.004640592296547 ]
    - [     0.008041955008402,     0.004643024888912,    -0.003866151950004 ]
  - # (2, 4)
    - [    -0.011305048868548,    -0.001035738194950,    -0.007919975309716 ]
    - [    -0.001035738194950,    -0.010109081417220,    -0.004572599877040 ]
    - [    -0.007923906400185,    -0.004574869493180,    -0.003617103446879 ]
  - # (2, 5)
    - [    -0.131921776939376,     0.172670712222076,     0.421284335162251 ]
    - [     0.172670712222076,    -0.331304741304536,     0.243228624311298 ]
    - [     0.421100750170842,     0.243122631467089,    -1.283684176844240 ]
  - # (2, 6)
    - [    -0.204773807497586,    -0.164933331293469,    -0.421191641667644 ]
    - [    -0.164933331293469,    -0.014325201056333,    -0.243175107697234 ]
    - [    -0.421039553127141,    -0.243087299337435,    -0.639354087665218 ]
  - # (2, 7)
    - [    -0.013409456157277,    -0.006749332218928,    -0.008037741634832 ]
    - [    -0.006749332218928,    -0.005615998610381,    -0.004640592296547 ]
    - [    -0.008041955008402,    -0.004643024888912,    -0.003866151950004 ]
  - # (2, 8)
    - [    -0.011305048868548,    -0.001035738194950,     0.007919975309716 ]
    - [    -0.001035738194950,    -0.010109081417220,     0.004572599877040 ]
    - [     0.007923906400185,     0.004574869493180,    -0.003617103446879 ]
  - # (2, 9)
    - [     0.000179795235570,    -0.000074748033385,    -0.000000000000000 ]
    - [    -0.000074748033385,     0.000266106829962,     0.000000000000000 ]
    - [     0.000000000000000,     0.000000000000000,     0.000089433876434 ]
  - # (2, 10)
    - [     0.000233978693524,    -0.000018098218900,    -0.000000000000000 ]
    - [    -0.000018098218900,     0.000254876716631,     0.000000000000000 ]
    - [     0.000000000000000,     0.000000000000000,     0.000060864721462 ]
  - # (2, 11)
    - [     0.000315797780052,     0.000011959199592,    -0.000000000000000 ]
    - [     0.000011959199592,     0.000301988485844,     0.000000000000000 ]
    - [     0.000000000000000,     0.000000000000000,     0.001160156119294 ]
  - # (2, 12)
    - [     0.000358699925939,     0.000022146120930,    -0.000000000000000 ]
    - [     0.000022146120930,     0.000333127788178,     0.000000000000000 ]
    - [     0.000000000000000,     0.000000000000000,     0.000865769609366 ]
  - # (2, 13)
    - [     3.102386674792131,     0.892750272753050,    -0.000000000000001 ]
    - [     0.892750272753048,     2.071527454205961,     0.000000000000001 ]
    - [     0.000000000000000,     0.000000000000000,     3.630415430958950 ]
  - # (2, 14)
    - [    -1.183086798489399,    -0.441312119272069,    -0.000000000000000 ]
    - [    -0.441312119272068,    -0.673503456772653,     0.000000000000000 ]
    - [    -0.000000000000000,    -0.000000000000000,     0.139354748335733 ]
  - # (2, 15)
    - [    -0.017639960697795,    -0.009901223141787,     0.000000000000000 ]
    - [    -0.009901223141787,    -0.006207013005361,    -0.000000000000000 ]
    - [    -0.000000000000000,    -0.000000000000000,    -0.001698622583656 ]
  - # (2, 16)
    - [    -1.183075863464550,    -0.441303925311739,    -0.000000000000000 ]
    - [    -0.441303925311738,    -0.673501983318208,     0.000000000000000 ]
    - [    -0.000000000000000,    -0.000000000000000,     0.139364064364528 ]
  - # (2, 17)
    - [     0.001821698538937,     0.000506465174835,     0.000736989260401 ]
    - [     0.000506465174835,     0.001236882928885,     0.000425500947883 ]
    - [    -0.000737159790706,    -0.000425599403600,    -0.024339056830314 ]
  - # (2, 18)
    - [    -0.000187826297980,    -0.000252660902262,    -0.000049005986903 ]
    - [    -0.000252660902262,     0.000103921381889,    -0.000028293619730 ]
    - [     0.000524876372741,     0.000303037515093,    -0.000555545850487 ]
  - # (2, 19)
    - [     0.000110359876917,    -0.000046535976218,    -0.000160694050077 ]
    - [    -0.000046535976218,     0.000164094993710,    -0.000092776753069 ]
    - [     0.000155911096442,     0.000090015313500,     0.001165435202278 ]
  - # (2, 20)
    - [    -0.000171500104396,    -0.000243805786186,    -0.000523110418336 ]
    - [    -0.000243805786186,     0.000110022568173,    -0.000302017940842 ]
    - [     0.000048335953273,     0.000027906775634,    -0.000554303713314 ]
  - # (2, 21)
    - [     0.001821698538937,     0.000506465174835,    -0.000736989260401 ]
    - [     0.000506465174835,     0.001236882928885,    -0.000425500947883 ]
    - [     0.000737159790706,     0.000425599403600,    -0.024339056830314 ]
  - # (2, 22)
    - [    -0.000187826297980,    -0.000252660902262,     0.000049005986903 ]
    - [    -0.000252660902262,     0.000103921381889,     0.000028293619730 ]
    - [    -0.000524876372741,    -0.000303037515093,    -0.000555545850487 ]
  - # (2, 23)
    - [     0.000110359876917,    -0.000046535976218,     0.000160694050077 ]
    - [    -0.000046535976218,     0.000164094993710,     0.000092776753069 ]
    - [    -0.000155911096442,    -0.000090015313500,     0.001165435202278 ]
  - # (2, 24)
    - [    -0.000171500104396,    -0.000243805786186,     0.000523110418336 ]
    - [    -0.000243805786186,     0.000110022568173,     0.000302017940842 ]
    - [    -0.000048335953273,    -0.000027906775634,    -0.000554303713314 ]