phonopy:
  version: "2.33.3"
  calculator: vasp
  frequency_unit_conversion_factor: 15.633302
  symmetry_tolerance: 1.00000e-05
  configuration:
    create_displacements: ".true."
    dim: "4 0 0 2 1 0 0 0 3"

physical_unit:
  atomic_mass: "AMU"
  length: "angstrom"

space_group:
  type: "P6_3/mmc"
  number: 194
  Hall_symbol: "-P 6c 2c"

supercell_matrix:
- [   4,   0,   0 ]
- [   2,   1,   0 ]
- [   0,   0,   3 ]

primitive_cell:
  lattice:
  - [     1.954294045411208,     0.000000000000000,     0.000000000000000 ] # a
  - [    -0.977147022705604,     1.692468289790766,     0.000000000000000 ] # b
  - [     0.000000000000000,     0.000000000000000,     3.187707815149744 ] # c
  points:
  - symbol: He # 1
    coordinates: [  0.333333333333333,  0.666666666666666,  0.250000000000000 ]
    mass: 4.002602
  - symbol: He # 2
    coordinates: [  0.666666666666667,  0.333333333333333,  0.750000000000000 ]
    mass: 4.002602
  reciprocal_lattice: # without 2pi
  - [     0.511693725080960,     0.295426509918135,     0.000000000000000 ] # a*
  - [     0.000000000000000,     0.590853019836269,     0.000000000000000 ] # b*
  - [     0.000000000000000,     0.000000000000000,     0.313705037597062 ] # c*

unit_cell:
  lattice:
  - [     1.954294045411208,     0.000000000000000,     0.000000000000000 ] # a
  - [    -0.977147022705604,     1.692468289790766,     0.000000000000000 ] # b
  - [     0.000000000000000,     0.000000000000000,     3.187707815149744 ] # c
  points:
  - symbol: He # 1
    coordinates: [  0.333333333333333,  0.666666666666667,  0.250000000000000 ]
    mass: 4.002602
    reduced_to: 1
  - symbol: He # 2
    coordinates: [  0.666666666666667,  0.333333333333333,  0.750000000000000 ]
    mass: 4.002602
    reduced_to: 2

supercell:
  lattice:
  - [     5.862882136233625,     3.384936579581532,     0.000000000000000 ] # a
  - [    -0.977147022705604,     1.692468289790766,     0.000000000000000 ] # b
  - [     0.000000000000000,     0.000000000000000,     9.563123445449232 ] # c
  points:
  - symbol: He # 1
    coordinates: [  0.083333333333333,  0.500000000000000,  0.083333333333333 ]
    mass: 4.002602
    reduced_to: 1
  - symbol: He # 2
    coordinates: [  0.333333333333333,  1.000000000000000,  0.083333333333333 ]
    mass: 4.002602
    reduced_to: 1
  - symbol: He # 3
    coordinates: [  0.583333333333333,  0.500000000000000,  0.083333333333333 ]
    mass: 4.002602
    reduced_to: 1
  - symbol: He # 4
    coordinates: [  0.833333333333333,  1.000000000000000,  0.083333333333333 ]
    mass: 4.002602
    reduced_to: 1
  - symbol: He # 5
    coordinates: [  0.083333333333333,  0.500000000000000,  0.416666666666667 ]
    mass: 4.002602
    reduced_to: 1
  - symbol: He # 6
    coordinates: [  0.333333333333333,  1.000000000000000,  0.416666666666667 ]
    mass: 4.002602
    reduced_to: 1
  - symbol: He # 7
    coordinates: [  0.583333333333333,  0.500000000000000,  0.416666666666667 ]
    mass: 4.002602
    reduced_to: 1
  - symbol: He # 8
    coordinates: [  0.833333333333333,  1.000000000000000,  0.416666666666667 ]
    mass: 4.002602
    reduced_to: 1
  - symbol: He # 9
    coordinates: [  0.083333333333333,  0.500000000000000,  0.750000000000000 ]
    mass: 4.002602
    reduced_to: 1
  - symbol: He # 10
    coordinates: [  0.333333333333333,  1.000000000000000,  0.750000000000000 ]
    mass: 4.002602
    reduced_to: 1
  - symbol: He # 11
    coordinates: [  0.583333333333333,  0.500000000000000,  0.750000000000000 ]
    mass: 4.002602
    reduced_to: 1
  - symbol: He # 12
    coordinates: [  0.833333333333333,  1.000000000000000,  0.750000000000000 ]
    mass: 4.002602
    reduced_to: 1
  - symbol: He # 13
    coordinates: [  0.166666666666667,  1.000000000000000,  0.250000000000000 ]
    mass: 4.002602
    reduced_to: 13
  - symbol: He # 14
    coordinates: [  0.416666666666667,  0.500000000000000,  0.250000000000000 ]
    mass: 4.002602
    reduced_to: 13
  - symbol: He # 15
    coordinates: [  0.666666666666667,  1.000000000000000,  0.250000000000000 ]
    mass: 4.002602
    reduced_to: 13
  - symbol: He # 16
    coordinates: [  0.916666666666667,  0.500000000000000,  0.250000000000000 ]
    mass: 4.002602
    reduced_to: 13
  - symbol: He # 17
    coordinates: [  0.166666666666667,  1.000000000000000,  0.583333333333333 ]
    mass: 4.002602
    reduced_to: 13
  - symbol: He # 18
    coordinates: [  0.416666666666667,  0.500000000000000,  0.583333333333333 ]
    mass: 4.002602
    reduced_to: 13
  - symbol: He # 19
    coordinates: [  0.666666666666667,  1.000000000000000,  0.583333333333333 ]
    mass: 4.002602
    reduced_to: 13
  - symbol: He # 20
    coordinates: [  0.916666666666667,  0.500000000000000,  0.583333333333333 ]
    mass: 4.002602
    reduced_to: 13
  - symbol: He # 21
    coordinates: [  0.166666666666667,  1.000000000000000,  0.916666666666667 ]
    mass: 4.002602
    reduced_to: 13
  - symbol: He # 22
    coordinates: [  0.416666666666667,  0.500000000000000,  0.916666666666667 ]
    mass: 4.002602
    reduced_to: 13
  - symbol: He # 23
    coordinates: [  0.666666666666667,  1.000000000000000,  0.916666666666667 ]
    mass: 4.002602
    reduced_to: 13
  - symbol: He # 24
    coordinates: [  0.916666666666667,  0.500000000000000,  0.916666666666667 ]
    mass: 4.002602
    reduced_to: 13

displacements:
- atom:    1
  displacement:
    [   0.0041130178726742,  0.0042743735567463,  0.0080506406376418 ]
- atom:    1
  displacement:
    [  -0.0041130178726742, -0.0042743735567463, -0.0080506406376418 ]
