<?xml version="1.0" encoding="ISO-8859-1"?>
<modeling>
 <generator>
  <i name="program" type="string">vasp </i>
  <i name="version" type="string">6.4.3  </i>
  <i name="subversion" type="string">19Mar24 (build Jun 20 2024 15:56:09) complex                          parallel </i>
  <i name="platform" type="string">LinuxNV_CrayMPICH </i>
  <i name="date" type="string">2025 01 13 </i>
  <i name="time" type="string">18:02:29 </i>
 </generator>
 <incar>
  <i type="string" name="PREC">Accurate</i>
  <i type="int" name="IBRION">    -1</i>
  <i name="EDIFF">      0.00000001</i>
  <i type="int" name="NSW">     0</i>
  <i name="ENCUT">    500.00000000</i>
  <i type="logical" name="LREAL"> F  </i>
  <i type="int" name="ISMEAR">     0</i>
  <i name="SIGMA">      0.01000000</i>
  <i type="logical" name="LWAVE"> F  </i>
  <i type="logical" name="LCHARG"> F  </i>
 </incar>
 <primitive_cell>
  <structure name="primitive_cell" >
   <crystal>
    <varray name="basis" >
     <v>      -0.00000000       0.00000000       5.44370237 </v>
     <v>      -5.44370237       0.00000000       0.00000000 </v>
     <v>      -2.72185119      -5.44370237       2.72185119 </v>
    </varray>
    <i name="volume">    161.31810740 </i>
    <varray name="rec_basis" >
     <v>       0.00000000       0.09184925       0.18369851 </v>
     <v>      -0.18369851       0.09184925      -0.00000000 </v>
     <v>       0.00000000      -0.18369851       0.00000000 </v>
    </varray>
   </crystal>
   <varray name="positions" >
    <v>       1.00000000       0.00000000       0.99850011 </v>
    <v>       0.75000000       0.25000000       0.50000000 </v>
    <v>       0.50000000       0.50000000       0.00000000 </v>
    <v>       0.25000000       0.75000000       0.50000000 </v>
    <v>       0.37500000       0.87500000       0.75000000 </v>
    <v>       0.12500000       0.12500000       0.25000000 </v>
    <v>       0.87500000       0.37500000       0.75000000 </v>
    <v>       0.62500000       0.62500000       0.25000000 </v>
   </varray>
  </structure>
  <varray name="primitive_index" >
   <v type="int" >        1 </v>
   <v type="int" >        2 </v>
   <v type="int" >        3 </v>
   <v type="int" >        4 </v>
   <v type="int" >        5 </v>
   <v type="int" >        6 </v>
   <v type="int" >        7 </v>
   <v type="int" >        8 </v>
  </varray>
 </primitive_cell>
 <kpoints>
  <generation param="Gamma">
   <v type="int" name="divisions">       9        9        8 </v>
   <v name="usershift">      0.00000000       0.00000000       0.00000000 </v>
   <v name="genvec1">      0.11111111       0.00000000      -0.00000000 </v>
   <v name="genvec2">      0.00000000       0.11111111       0.00000000 </v>
   <v name="genvec3">      0.00000000       0.00000000       0.12500000 </v>
   <v name="shift">      0.00000000       0.00000000       0.00000000 </v>
  </generation>
  <varray name="kpointlist" >
   <v>       0.00000000       0.00000000       0.00000000 </v>
   <v>       0.11111111       0.00000000       0.00000000 </v>
   <v>       0.22222222       0.00000000       0.00000000 </v>
   <v>       0.33333333       0.00000000       0.00000000 </v>
   <v>       0.44444444       0.00000000       0.00000000 </v>
   <v>       0.11111111       0.11111111       0.00000000 </v>
   <v>       0.22222222       0.11111111       0.00000000 </v>
   <v>       0.33333333       0.11111111       0.00000000 </v>
   <v>       0.44444444       0.11111111       0.00000000 </v>
   <v>      -0.44444444       0.11111111       0.00000000 </v>
   <v>      -0.33333333       0.11111111       0.00000000 </v>
   <v>      -0.22222222       0.11111111       0.00000000 </v>
   <v>      -0.11111111       0.11111111       0.00000000 </v>
   <v>       0.22222222       0.22222222       0.00000000 </v>
   <v>       0.33333333       0.22222222       0.00000000 </v>
   <v>       0.44444444       0.22222222       0.00000000 </v>
   <v>      -0.44444444       0.22222222       0.00000000 </v>
   <v>      -0.33333333       0.22222222       0.00000000 </v>
   <v>      -0.22222222       0.22222222       0.00000000 </v>
   <v>       0.33333333       0.33333333       0.00000000 </v>
   <v>       0.44444444       0.33333333       0.00000000 </v>
   <v>      -0.44444444       0.33333333       0.00000000 </v>
   <v>      -0.33333333       0.33333333       0.00000000 </v>
   <v>       0.44444444       0.44444444       0.00000000 </v>
   <v>      -0.44444444       0.44444444       0.00000000 </v>
   <v>       0.00000000       0.00000000       0.12500000 </v>
   <v>       0.11111111       0.00000000       0.12500000 </v>
   <v>       0.22222222       0.00000000       0.12500000 </v>
   <v>       0.33333333       0.00000000       0.12500000 </v>
   <v>       0.44444444       0.00000000       0.12500000 </v>
   <v>      -0.44444444       0.00000000       0.12500000 </v>
   <v>      -0.33333333       0.00000000       0.12500000 </v>
   <v>      -0.22222222       0.00000000       0.12500000 </v>
   <v>      -0.11111111       0.00000000       0.12500000 </v>
   <v>       0.11111111       0.11111111       0.12500000 </v>
   <v>       0.22222222       0.11111111       0.12500000 </v>
   <v>       0.33333333       0.11111111       0.12500000 </v>
   <v>       0.44444444       0.11111111       0.12500000 </v>
   <v>      -0.44444444       0.11111111       0.12500000 </v>
   <v>      -0.33333333       0.11111111       0.12500000 </v>
   <v>      -0.22222222       0.11111111       0.12500000 </v>
   <v>      -0.11111111       0.11111111       0.12500000 </v>
   <v>       0.22222222       0.22222222       0.12500000 </v>
   <v>       0.33333333       0.22222222       0.12500000 </v>
   <v>       0.44444444       0.22222222       0.12500000 </v>
   <v>      -0.44444444       0.22222222       0.12500000 </v>
   <v>      -0.33333333       0.22222222       0.12500000 </v>
   <v>      -0.22222222       0.22222222       0.12500000 </v>
   <v>      -0.11111111       0.22222222       0.12500000 </v>
   <v>       0.33333333       0.33333333       0.12500000 </v>
   <v>       0.44444444       0.33333333       0.12500000 </v>
   <v>      -0.44444444       0.33333333       0.12500000 </v>
   <v>      -0.33333333       0.33333333       0.12500000 </v>
   <v>      -0.22222222       0.33333333       0.12500000 </v>
   <v>      -0.11111111       0.33333333       0.12500000 </v>
   <v>       0.44444444       0.44444444       0.12500000 </v>
   <v>      -0.44444444       0.44444444       0.12500000 </v>
   <v>      -0.33333333       0.44444444       0.12500000 </v>
   <v>      -0.22222222       0.44444444       0.12500000 </v>
   <v>      -0.11111111       0.44444444       0.12500000 </v>
   <v>      -0.44444444      -0.44444444       0.12500000 </v>
   <v>      -0.33333333      -0.44444444       0.12500000 </v>
   <v>      -0.22222222      -0.44444444       0.12500000 </v>
   <v>      -0.11111111      -0.44444444       0.12500000 </v>
   <v>      -0.33333333      -0.33333333       0.12500000 </v>
   <v>      -0.22222222      -0.33333333       0.12500000 </v>
   <v>      -0.11111111      -0.33333333       0.12500000 </v>
   <v>      -0.22222222      -0.22222222       0.12500000 </v>
   <v>      -0.11111111      -0.22222222       0.12500000 </v>
   <v>      -0.11111111      -0.11111111       0.12500000 </v>
   <v>       0.00000000       0.00000000       0.25000000 </v>
   <v>       0.11111111       0.00000000       0.25000000 </v>
   <v>       0.22222222       0.00000000       0.25000000 </v>
   <v>       0.33333333       0.00000000       0.25000000 </v>
   <v>       0.44444444       0.00000000       0.25000000 </v>
   <v>      -0.44444444       0.00000000       0.25000000 </v>
   <v>      -0.33333333       0.00000000       0.25000000 </v>
   <v>      -0.22222222       0.00000000       0.25000000 </v>
   <v>      -0.11111111       0.00000000       0.25000000 </v>
   <v>       0.11111111       0.11111111       0.25000000 </v>
   <v>       0.22222222       0.11111111       0.25000000 </v>
   <v>       0.33333333       0.11111111       0.25000000 </v>
   <v>       0.44444444       0.11111111       0.25000000 </v>
   <v>      -0.44444444       0.11111111       0.25000000 </v>
   <v>      -0.33333333       0.11111111       0.25000000 </v>
   <v>      -0.22222222       0.11111111       0.25000000 </v>
   <v>      -0.11111111       0.11111111       0.25000000 </v>
   <v>       0.22222222       0.22222222       0.25000000 </v>
   <v>       0.33333333       0.22222222       0.25000000 </v>
   <v>       0.44444444       0.22222222       0.25000000 </v>
   <v>      -0.44444444       0.22222222       0.25000000 </v>
   <v>      -0.33333333       0.22222222       0.25000000 </v>
   <v>      -0.22222222       0.22222222       0.25000000 </v>
   <v>      -0.11111111       0.22222222       0.25000000 </v>
   <v>       0.33333333       0.33333333       0.25000000 </v>
   <v>       0.44444444       0.33333333       0.25000000 </v>
   <v>      -0.44444444       0.33333333       0.25000000 </v>
   <v>      -0.33333333       0.33333333       0.25000000 </v>
   <v>      -0.22222222       0.33333333       0.25000000 </v>
   <v>      -0.11111111       0.33333333       0.25000000 </v>
   <v>       0.44444444       0.44444444       0.25000000 </v>
   <v>      -0.44444444       0.44444444       0.25000000 </v>
   <v>      -0.33333333       0.44444444       0.25000000 </v>
   <v>      -0.22222222       0.44444444       0.25000000 </v>
   <v>      -0.11111111       0.44444444       0.25000000 </v>
   <v>      -0.44444444      -0.44444444       0.25000000 </v>
   <v>      -0.33333333      -0.44444444       0.25000000 </v>
   <v>      -0.22222222      -0.44444444       0.25000000 </v>
   <v>      -0.11111111      -0.44444444       0.25000000 </v>
   <v>      -0.33333333      -0.33333333       0.25000000 </v>
   <v>      -0.22222222      -0.33333333       0.25000000 </v>
   <v>      -0.11111111      -0.33333333       0.25000000 </v>
   <v>      -0.22222222      -0.22222222       0.25000000 </v>
   <v>      -0.11111111      -0.22222222       0.25000000 </v>
   <v>      -0.11111111      -0.11111111       0.25000000 </v>
   <v>       0.00000000       0.00000000       0.37500000 </v>
   <v>       0.11111111       0.00000000       0.37500000 </v>
   <v>       0.22222222       0.00000000       0.37500000 </v>
   <v>       0.33333333       0.00000000       0.37500000 </v>
   <v>       0.44444444       0.00000000       0.37500000 </v>
   <v>      -0.44444444       0.00000000       0.37500000 </v>
   <v>      -0.33333333       0.00000000       0.37500000 </v>
   <v>      -0.22222222       0.00000000       0.37500000 </v>
   <v>      -0.11111111       0.00000000       0.37500000 </v>
   <v>       0.11111111       0.11111111       0.37500000 </v>
   <v>       0.22222222       0.11111111       0.37500000 </v>
   <v>       0.33333333       0.11111111       0.37500000 </v>
   <v>       0.44444444       0.11111111       0.37500000 </v>
   <v>      -0.44444444       0.11111111       0.37500000 </v>
   <v>      -0.33333333       0.11111111       0.37500000 </v>
   <v>      -0.22222222       0.11111111       0.37500000 </v>
   <v>      -0.11111111       0.11111111       0.37500000 </v>
   <v>       0.22222222       0.22222222       0.37500000 </v>
   <v>       0.33333333       0.22222222       0.37500000 </v>
   <v>       0.44444444       0.22222222       0.37500000 </v>
   <v>      -0.44444444       0.22222222       0.37500000 </v>
   <v>      -0.33333333       0.22222222       0.37500000 </v>
   <v>      -0.22222222       0.22222222       0.37500000 </v>
   <v>      -0.11111111       0.22222222       0.37500000 </v>
   <v>       0.33333333       0.33333333       0.37500000 </v>
   <v>       0.44444444       0.33333333       0.37500000 </v>
   <v>      -0.44444444       0.33333333       0.37500000 </v>
   <v>      -0.33333333       0.33333333       0.37500000 </v>
   <v>      -0.22222222       0.33333333       0.37500000 </v>
   <v>      -0.11111111       0.33333333       0.37500000 </v>
   <v>       0.44444444       0.44444444       0.37500000 </v>
   <v>      -0.44444444       0.44444444       0.37500000 </v>
   <v>      -0.33333333       0.44444444       0.37500000 </v>
   <v>      -0.22222222       0.44444444       0.37500000 </v>
   <v>      -0.11111111       0.44444444       0.37500000 </v>
   <v>      -0.44444444      -0.44444444       0.37500000 </v>
   <v>      -0.33333333      -0.44444444       0.37500000 </v>
   <v>      -0.22222222      -0.44444444       0.37500000 </v>
   <v>      -0.11111111      -0.44444444       0.37500000 </v>
   <v>      -0.33333333      -0.33333333       0.37500000 </v>
   <v>      -0.22222222      -0.33333333       0.37500000 </v>
   <v>      -0.11111111      -0.33333333       0.37500000 </v>
   <v>      -0.22222222      -0.22222222       0.37500000 </v>
   <v>      -0.11111111      -0.22222222       0.37500000 </v>
   <v>      -0.11111111      -0.11111111       0.37500000 </v>
   <v>       0.00000000       0.00000000       0.50000000 </v>
   <v>       0.11111111       0.00000000       0.50000000 </v>
   <v>       0.22222222       0.00000000       0.50000000 </v>
   <v>       0.33333333       0.00000000       0.50000000 </v>
   <v>       0.44444444       0.00000000       0.50000000 </v>
   <v>       0.11111111       0.11111111       0.50000000 </v>
   <v>       0.22222222       0.11111111       0.50000000 </v>
   <v>       0.33333333       0.11111111       0.50000000 </v>
   <v>       0.44444444       0.11111111       0.50000000 </v>
   <v>      -0.44444444       0.11111111       0.50000000 </v>
   <v>      -0.33333333       0.11111111       0.50000000 </v>
   <v>      -0.22222222       0.11111111       0.50000000 </v>
   <v>      -0.11111111       0.11111111       0.50000000 </v>
   <v>       0.22222222       0.22222222       0.50000000 </v>
   <v>       0.33333333       0.22222222       0.50000000 </v>
   <v>       0.44444444       0.22222222       0.50000000 </v>
   <v>      -0.44444444       0.22222222       0.50000000 </v>
   <v>      -0.33333333       0.22222222       0.50000000 </v>
   <v>      -0.22222222       0.22222222       0.50000000 </v>
   <v>       0.33333333       0.33333333       0.50000000 </v>
   <v>       0.44444444       0.33333333       0.50000000 </v>
   <v>      -0.44444444       0.33333333       0.50000000 </v>
   <v>      -0.33333333       0.33333333       0.50000000 </v>
   <v>       0.44444444       0.44444444       0.50000000 </v>
   <v>      -0.44444444       0.44444444       0.50000000 </v>
  </varray>
  <varray name="weights" >
   <v>       0.00154321 </v>
   <v>       0.00617284 </v>
   <v>       0.00617284 </v>
   <v>       0.00617284 </v>
   <v>       0.00617284 </v>
   <v>       0.00308642 </v>
   <v>       0.00617284 </v>
   <v>       0.00617284 </v>
   <v>       0.00617284 </v>
   <v>       0.00617284 </v>
   <v>       0.00617284 </v>
   <v>       0.00617284 </v>
   <v>       0.00308642 </v>
   <v>       0.00308642 </v>
   <v>       0.00617284 </v>
   <v>       0.00617284 </v>
   <v>       0.00617284 </v>
   <v>       0.00617284 </v>
   <v>       0.00308642 </v>
   <v>       0.00308642 </v>
   <v>       0.00617284 </v>
   <v>       0.00617284 </v>
   <v>       0.00308642 </v>
   <v>       0.00308642 </v>
   <v>       0.00308642 </v>
   <v>       0.00308642 </v>
   <v>       0.00617284 </v>
   <v>       0.00617284 </v>
   <v>       0.00617284 </v>
   <v>       0.00617284 </v>
   <v>       0.00617284 </v>
   <v>       0.00617284 </v>
   <v>       0.00617284 </v>
   <v>       0.00617284 </v>
   <v>       0.00308642 </v>
   <v>       0.00617284 </v>
   <v>       0.00617284 </v>
   <v>       0.00617284 </v>
   <v>       0.00617284 </v>
   <v>       0.00617284 </v>
   <v>       0.00617284 </v>
   <v>       0.00617284 </v>
   <v>       0.00308642 </v>
   <v>       0.00617284 </v>
   <v>       0.00617284 </v>
   <v>       0.00617284 </v>
   <v>       0.00617284 </v>
   <v>       0.00617284 </v>
   <v>       0.00617284 </v>
   <v>       0.00308642 </v>
   <v>       0.00617284 </v>
   <v>       0.00617284 </v>
   <v>       0.00617284 </v>
   <v>       0.00617284 </v>
   <v>       0.00617284 </v>
   <v>       0.00308642 </v>
   <v>       0.00617284 </v>
   <v>       0.00617284 </v>
   <v>       0.00617284 </v>
   <v>       0.00617284 </v>
   <v>       0.00308642 </v>
   <v>       0.00617284 </v>
   <v>       0.00617284 </v>
   <v>       0.00617284 </v>
   <v>       0.00308642 </v>
   <v>       0.00617284 </v>
   <v>       0.00617284 </v>
   <v>       0.00308642 </v>
   <v>       0.00617284 </v>
   <v>       0.00308642 </v>
   <v>       0.00308642 </v>
   <v>       0.00617284 </v>
   <v>       0.00617284 </v>
   <v>       0.00617284 </v>
   <v>       0.00617284 </v>
   <v>       0.00617284 </v>
   <v>       0.00617284 </v>
   <v>       0.00617284 </v>
   <v>       0.00617284 </v>
   <v>       0.00308642 </v>
   <v>       0.00617284 </v>
   <v>       0.00617284 </v>
   <v>       0.00617284 </v>
   <v>       0.00617284 </v>
   <v>       0.00617284 </v>
   <v>       0.00617284 </v>
   <v>       0.00617284 </v>
   <v>       0.00308642 </v>
   <v>       0.00617284 </v>
   <v>       0.00617284 </v>
   <v>       0.00617284 </v>
   <v>       0.00617284 </v>
   <v>       0.00617284 </v>
   <v>       0.00617284 </v>
   <v>       0.00308642 </v>
   <v>       0.00617284 </v>
   <v>       0.00617284 </v>
   <v>       0.00617284 </v>
   <v>       0.00617284 </v>
   <v>       0.00617284 </v>
   <v>       0.00308642 </v>
   <v>       0.00617284 </v>
   <v>       0.00617284 </v>
   <v>       0.00617284 </v>
   <v>       0.00617284 </v>
   <v>       0.00308642 </v>
   <v>       0.00617284 </v>
   <v>       0.00617284 </v>
   <v>       0.00617284 </v>
   <v>       0.00308642 </v>
   <v>       0.00617284 </v>
   <v>       0.00617284 </v>
   <v>       0.00308642 </v>
   <v>       0.00617284 </v>
   <v>       0.00308642 </v>
   <v>       0.00308642 </v>
   <v>       0.00617284 </v>
   <v>       0.00617284 </v>
   <v>       0.00617284 </v>
   <v>       0.00617284 </v>
   <v>       0.00617284 </v>
   <v>       0.00617284 </v>
   <v>       0.00617284 </v>
   <v>       0.00617284 </v>
   <v>       0.00308642 </v>
   <v>       0.00617284 </v>
   <v>       0.00617284 </v>
   <v>       0.00617284 </v>
   <v>       0.00617284 </v>
   <v>       0.00617284 </v>
   <v>       0.00617284 </v>
   <v>       0.00617284 </v>
   <v>       0.00308642 </v>
   <v>       0.00617284 </v>
   <v>       0.00617284 </v>
   <v>       0.00617284 </v>
   <v>       0.00617284 </v>
   <v>       0.00617284 </v>
   <v>       0.00617284 </v>
   <v>       0.00308642 </v>
   <v>       0.00617284 </v>
   <v>       0.00617284 </v>
   <v>       0.00617284 </v>
   <v>       0.00617284 </v>
   <v>       0.00617284 </v>
   <v>       0.00308642 </v>
   <v>       0.00617284 </v>
   <v>       0.00617284 </v>
   <v>       0.00617284 </v>
   <v>       0.00617284 </v>
   <v>       0.00308642 </v>
   <v>       0.00617284 </v>
   <v>       0.00617284 </v>
   <v>       0.00617284 </v>
   <v>       0.00308642 </v>
   <v>       0.00617284 </v>
   <v>       0.00617284 </v>
   <v>       0.00308642 </v>
   <v>       0.00617284 </v>
   <v>       0.00308642 </v>
   <v>       0.00154321 </v>
   <v>       0.00617284 </v>
   <v>       0.00617284 </v>
   <v>       0.00617284 </v>
   <v>       0.00617284 </v>
   <v>       0.00308642 </v>
   <v>       0.00617284 </v>
   <v>       0.00617284 </v>
   <v>       0.00617284 </v>
   <v>       0.00617284 </v>
   <v>       0.00617284 </v>
   <v>       0.00617284 </v>
   <v>       0.00308642 </v>
   <v>       0.00308642 </v>
   <v>       0.00617284 </v>
   <v>       0.00617284 </v>
   <v>       0.00617284 </v>
   <v>       0.00617284 </v>
   <v>       0.00308642 </v>
   <v>       0.00308642 </v>
   <v>       0.00617284 </v>
   <v>       0.00617284 </v>
   <v>       0.00308642 </v>
   <v>       0.00308642 </v>
   <v>       0.00308642 </v>
  </varray>
 </kpoints>
 <parameters>
  <separator name="general" >
   <i type="string" name="SYSTEM">unknown system</i>
   <i type="logical" name="LCOMPAT"> F  </i>
  </separator>
  <separator name="electronic" >
   <i type="string" name="PREC">accura</i>
   <i name="ENMAX">    500.00000000</i>
   <i name="ENAUG">    322.06900000</i>
   <i name="EDIFF">      0.00000001</i>
   <i type="int" name="IALGO">    38</i>
   <i type="int" name="IWAVPR">    10</i>
   <i type="int" name="NBANDS">    24</i>
   <i type="int" name="NBANDSLOW">    -1</i>
   <i type="int" name="NBANDSHIGH">    -1</i>
   <i name="NELECT">     32.00000000</i>
   <i type="int" name="TURBO">     0</i>
   <i type="int" name="IRESTART">     0</i>
   <i type="int" name="NREBOOT">     0</i>
   <i type="int" name="NMIN">     0</i>
   <i name="EREF">      0.00000000</i>
   <separator name="electronic smearing" >
    <i type="int" name="ISMEAR">     0</i>
    <i name="SIGMA">      0.01000000</i>
    <i name="KSPACING">      0.50000000</i>
    <i type="logical" name="KGAMMA"> T  </i>
    <i type="logical" name="KBLOWUP"> F  </i>
   </separator>
   <separator name="electronic projectors" >
    <i type="logical" name="LREAL"> F  </i>
    <v name="ROPT">      0.00000000</v>
    <i type="int" name="LMAXPAW">  -100</i>
    <i type="int" name="LMAXMIX">     2</i>
    <i type="logical" name="NLSPLINE"> F  </i>
   </separator>
   <separator name="electronic startup" >
    <i type="int" name="ISTART">     0</i>
    <i type="int" name="ICHARG">     2</i>
    <i type="int" name="INIWAV">     1</i>
   </separator>
   <separator name="electronic spin" >
    <i type="int" name="ISPIN">     1</i>
    <i type="logical" name="LNONCOLLINEAR"> F  </i>
    <v name="MAGMOM">      1.00000000      1.00000000      1.00000000      1.00000000      1.00000000      1.00000000      1.00000000      1.00000000</v>
    <i name="NUPDOWN">     -1.00000000</i>
    <i type="logical" name="LSORBIT"> F  </i>
    <v name="SAXIS">      0.00000000      0.00000000      1.00000000</v>
    <i type="logical" name="LSPIRAL"> F  </i>
    <v name="QSPIRAL">      0.00000000      0.00000000      0.00000000</v>
    <i type="logical" name="LZEROZ"> F  </i>
   </separator>
   <separator name="electronic exchange-correlation" >
    <i type="logical" name="LASPH"> F  </i>
   </separator>
   <separator name="electronic convergence" >
    <i type="int" name="NELM">    60</i>
    <i type="int" name="NELMDL">    -5</i>
    <i type="int" name="NELMIN">     2</i>
    <i name="ENINI">    500.00000000</i>
    <separator name="electronic convergence detail" >
     <i type="logical" name="LDIAG"> T  </i>
     <i type="logical" name="LSUBROT"> F  </i>
     <i name="WEIMIN">      0.00000000</i>
     <i name="EBREAK">      0.00000000</i>
     <i name="DEPER">      0.30000000</i>
     <i type="int" name="NRMM">     4</i>
     <i name="TIME">      0.40000000</i>
    </separator>
   </separator>
   <separator name="electronic mixer" >
    <i name="AMIX">      0.40000000</i>
    <i name="BMIX">      1.00000000</i>
    <i name="AMIN">      0.10000000</i>
    <i name="AMIX_MAG">      1.60000000</i>
    <i name="BMIX_MAG">      1.00000000</i>
    <separator name="electronic mixer details" >
     <i type="int" name="IMIX">     4</i>
     <i type="logical" name="MIXFIRST"> F  </i>
     <i type="int" name="MAXMIX">   -45</i>
     <i name="WC">    100.00000000</i>
     <i type="int" name="INIMIX">     1</i>
     <i type="int" name="MIXPRE">     1</i>
     <i type="int" name="MREMOVE">     5</i>
    </separator>
   </separator>
   <separator name="electronic dipolcorrection" >
    <i type="logical" name="LDIPOL"> F  </i>
    <i type="logical" name="LMONO"> F  </i>
    <i type="int" name="IDIPOL">     0</i>
    <i name="EPSILON">      1.00000000</i>
    <v name="DIPOL">   -100.00000000   -100.00000000   -100.00000000</v>
    <i name="EFIELD">      0.00000000</i>
    <i type="logical" name="LVACPOTAV"> F  </i>
   </separator>
  </separator>
  <separator name="grids" >
   <i type="int" name="NGX">    40</i>
   <i type="int" name="NGY">    40</i>
   <i type="int" name="NGZ">    50</i>
   <i type="int" name="NGXF">    80</i>
   <i type="int" name="NGYF">    80</i>
   <i type="int" name="NGZF">   100</i>
   <i type="logical" name="ADDGRID"> F  </i>
  </separator>
  <separator name="ionic" >
   <i type="int" name="NSW">     0</i>
   <i type="int" name="IBRION">    -1</i>
   <i type="int" name="MDALGO">     0</i>
   <i type="int" name="ISIF">     2</i>
   <i name="PSTRESS">      0.00000000</i>
   <i name="EDIFFG">      0.00000010</i>
   <i type="int" name="NFREE">     0</i>
   <i name="POTIM">      0.50000000</i>
   <i name="SMASS">     -3.00000000</i>
   <i name="SCALEE">      1.00000000</i>
  </separator>
  <separator name="ionic md" >
   <i name="TEBEG">      0.00010000</i>
   <i name="TEEND">      0.00010000</i>
   <i type="int" name="NBLOCK">     1</i>
   <i type="int" name="KBLOCK">     1</i>
   <i type="int" name="NPACO">   256</i>
   <i name="APACO">     10.00000000</i>
  </separator>
  <separator name="symmetry" >
   <i type="int" name="ISYM">     2</i>
   <i name="SYMPREC">      0.00001000</i>
  </separator>
  <separator name="dos" >
   <i type="int" name="LORBIT">     0</i>
   <v name="RWIGS">     -1.00000000</v>
   <i type="int" name="NEDOS">   301</i>
   <i name="EMIN">     10.00000000</i>
   <i name="EMAX">    -10.00000000</i>
   <i name="EFERMI">      0.00000000</i>
  </separator>
  <separator name="writing" >
   <i type="int" name="NWRITE">     2</i>
   <i type="logical" name="LWAVE"> F  </i>
   <i type="logical" name="LDOWNSAMPLE"> F  </i>
   <i type="logical" name="LCHARG"> F  </i>
   <i type="logical" name="LPARD"> F  </i>
   <i type="logical" name="LVTOT"> F  </i>
   <i type="logical" name="LVHAR"> F  </i>
   <i type="logical" name="LELF"> F  </i>
   <i type="logical" name="LOPTICS"> F  </i>
   <v name="STM">      0.00000000      0.00000000      0.00000000      0.00000000      0.00000000      0.00000000      0.00000000</v>
  </separator>
  <separator name="performance" >
   <i type="int" name="NPAR">     8</i>
   <i type="int" name="NSIM">     4</i>
   <i type="int" name="NBLK">    -1</i>
   <i type="logical" name="LPLANE"> T  </i>
   <i type="logical" name="LSCALAPACK"> T  </i>
   <i type="logical" name="LSCAAWARE"> F  </i>
   <i type="logical" name="LSCALU"> F  </i>
   <i type="logical" name="LASYNC"> F  </i>
   <i type="logical" name="LORBITALREAL"> F  </i>
  </separator>
  <separator name="miscellaneous" >
   <i type="int" name="IDIOT">     3</i>
   <i type="int" name="PHON_NSTRUCT">    -1</i>
   <i type="logical" name="LMUSIC"> F  </i>
   <v name="POMASS">     28.08500000</v>
   <v name="DARWINR">      0.00000000</v>
   <v name="DARWINV">      1.00000000</v>
   <i type="logical" name="LCORR"> T  </i>
  </separator>
  <i type="logical" name="GGA_COMPAT"> T  </i>
  <i type="logical" name="LBERRY"> F  </i>
  <i type="int" name="ICORELEVEL">     0</i>
  <i type="logical" name="LDAU"> F  </i>
  <i type="int" name="I_CONSTRAINED_M">     0</i>
  <separator name="electronic exchange-correlation" >
   <i type="string" name="GGA    ">PE</i>
   <i type="string" name="XC_C">1</i>
   <i type="int" name="VOSKOWN">     0</i>
   <i type="logical" name="LHFCALC"> F  </i>
   <i type="string" name="PRECFOCK"></i>
   <i type="logical" name="LSYMGRAD"> F  </i>
   <i type="logical" name="LHFONE"> F  </i>
   <i type="logical" name="LRHFCALC"> F  </i>
   <i type="logical" name="LTHOMAS"> F  </i>
   <i type="logical" name="LMODELHF"> F  </i>
   <i type="logical" name="LFOCKACE"> F  </i>
   <i name="ENCUT4O">     -1.00000000</i>
   <i type="int" name="EXXOEP">     0</i>
   <i type="int" name="FOURORBIT">     0</i>
   <i name="AEXX">      0.00000000</i>
   <i name="HFALPHA">      0.00000000</i>
   <i name="MCALPHA">      0.00000000</i>
   <i name="ALDAX">      1.00000000</i>
   <i name="AGGAX">      1.00000000</i>
   <i name="AMGGAX">      1.00000000</i>
   <i name="ALDAC">      1.00000000</i>
   <i name="AGGAC">      1.00000000</i>
   <i name="AMGGAC">      1.00000000</i>
   <i type="int" name="NKREDX">     1</i>
   <i type="int" name="NKREDY">     1</i>
   <i type="int" name="NKREDZ">     1</i>
   <i type="logical" name="SHIFTRED"> F  </i>
   <i type="logical" name="ODDONLY"> F  </i>
   <i type="logical" name="EVENONLY"> F  </i>
   <i type="int" name="LMAXFOCK">     0</i>
   <i type="int" name="NMAXFOCKAE">     0</i>
   <i type="logical" name="LFOCKAEDFT"> F  </i>
   <i name="HFSCREEN">      0.00000000</i>
   <i name="HFSCREENC">      0.00000000</i>
   <i type="int" name="NBANDSGWLOW">     0</i>
  </separator>
  <separator name="vdW DFT" >
   <i type="logical" name="LUSE_VDW"> F  </i>
   <i type="int" name="IVDW_NL">    -1</i>
   <i type="logical" name="LSPIN_VDW"> F  </i>
   <i name="ZAB_VDW">     -0.84910000</i>
   <i name="GAMMA_VDW">      1.39626340</i>
   <i name="ALPHA_VDW">      0.00000000</i>
   <i name="PARAM1">      0.12340000</i>
   <i name="PARAM2">      1.00000000</i>
   <i name="BPARAM">      6.30000000</i>
   <i name="CPARAM">      0.00930000</i>
  </separator>
  <separator name="model GW" >
   <i type="int" name="MODEL_GW">     0</i>
   <i name="MODEL_EPS0">     12.09885805</i>
   <i name="MODEL_ALPHA">      1.00000000</i>
  </separator>
  <separator name="linear response parameters" >
   <i type="logical" name="LEPSILON"> F  </i>
   <i type="logical" name="LRPA"> F  </i>
   <i type="logical" name="LNABLA"> F  </i>
   <i type="logical" name="LVEL"> F  </i>
   <i name="CSHIFT">      0.10000000</i>
   <i name="OMEGAMAX">     -1.00000000</i>
   <i name="DEG_THRESHOLD">      0.00200000</i>
   <i name="RTIME">     -0.10000000</i>
   <i name="WPLASMAI">      0.00000000</i>
   <v name="DFIELD">      0.00000000      0.00000000      0.00000000</v>
   <v name="WPLASMA">      0.00000000      0.00000000      0.00000000      0.00000000      0.00000000      0.00000000      0.00000000      0.00000000      0.00000000</v>
  </separator>
  <separator name="orbital magnetization" >
   <i type="logical" name="NUCIND"> F  </i>
   <v name="MAGPOS">      0.00000000      0.00000000      0.00000000</v>
   <i type="logical" name="LNICSALL"> T  </i>
   <i type="logical" name="ORBITALMAG"> F  </i>
   <i type="logical" name="LMAGBLOCH"> F  </i>
   <i type="logical" name="LCHIMAG"> F  </i>
   <i type="logical" name="LGAUGE"> T  </i>
   <i type="int" name="MAGATOM">     0</i>
   <v name="MAGDIPOL">      0.00000000      0.00000000      0.00000000</v>
   <v name="AVECCONST">      0.00000000      0.00000000      0.00000000</v>
  </separator>
  <separator name="response functions" >
   <i type="logical" name="LALL_IN_ONE"> F  </i>
   <i type="int" name="IALL_IN_ONE">    -1</i>
   <i type="int" name="NBANDS_WAVE">    -1</i>
   <i type="logical" name="LFINITE_TEMPERATURE"> F  </i>
   <i type="logical" name="LADDER"> F  </i>
   <i type="logical" name="LRPAFORCE"> F  </i>
   <i type="logical" name="LFXC"> F  </i>
   <i type="logical" name="LHARTREE"> T  </i>
   <i type="int" name="IBSE">     0</i>
   <v type="int" name="KPOINT">    -1     0     0     0</v>
   <i type="logical" name="LTCTC"> F  </i>
   <i type="logical" name="LTCTE"> F  </i>
   <i type="logical" name="LTETE"> F  </i>
   <i type="logical" name="LTRIPLET"> F  </i>
   <i type="logical" name="LFXCEPS"> F  </i>
   <i type="logical" name="LFXHEG"> F  </i>
   <i type="int" name="NATURALO">     2</i>
   <i type="logical" name="LHOLEGF"> F  </i>
   <i type="logical" name="L2ORDER"> F  </i>
   <i type="logical" name="LDMP1"> F  </i>
   <i type="logical" name="LMP2LT"> F  </i>
   <i type="logical" name="LSMP2LT"> F  </i>
   <i type="logical" name="LGWLF"> F  </i>
   <i name="ENCUTGW">     -1.60000002</i>
   <i name="ENCUTGWSOFT">     -1.60000002</i>
   <i name="ENCUTLF">     -1.00000000</i>
   <i type="logical" name="ESF_SPLINES"> F  </i>
   <i name="ESF_CONV">      0.01000000</i>
   <i type="int" name="ESF_NINTER">    15</i>
   <i type="int" name="LMAXMP2">    -1</i>
   <i name="SCISSOR">      0.00000000</i>
   <i type="int" name="NOMEGA">     0</i>
   <i type="int" name="NOMEGAR">     0</i>
   <i type="int" name="NBANDSGW">    -1</i>
   <i type="int" name="NBANDSO">    -1</i>
   <i type="int" name="NBANDSV">    -1</i>
   <i type="int" name="NELMGW">     1</i>
   <i type="int" name="NELMHF">     1</i>
   <i type="int" name="DIM">     3</i>
   <i type="int" name="IESPILON">     4</i>
   <i type="int" name="ANTIRES">     0</i>
   <i name="OMEGAMAX">    -30.00000000</i>
   <i name="OMEGAMIN">    -30.00000000</i>
   <i name="OMEGATL">   -200.00000000</i>
   <i type="int" name="OMEGAGRID">     0</i>
   <i name="CSHIFT">     -0.10000000</i>
   <i type="logical" name="LSELFENERGY"> F  </i>
   <i type="logical" name="LSPECTRAL"> F  </i>
   <i type="logical" name="LSPECTRALGW"> F  </i>
   <i type="logical" name="LSINGLES"> F  </i>
   <i type="logical" name="LFERMIGW"> F  </i>
   <i type="logical" name="ODDONLYGW"> F  </i>
   <i type="logical" name="EVENONLYGW"> F  </i>
   <i type="int" name="NKREDLFX">     1</i>
   <i type="int" name="NKREDLFY">     1</i>
   <i type="int" name="NKREDLFZ">     1</i>
   <i type="int" name="MAXMEM">  2800</i>
   <i type="int" name="TELESCOPE">     0</i>
   <i type="int" name="NTAUPAR">    -1</i>
   <i type="int" name="NOMEGAPAR">    -1</i>
   <i name="DAMP_NEWTON">      0.80000001</i>
   <i name="LAMBDA">      1.00000000</i>
  </separator>
  <separator name="External order field" >
   <i name="OFIELD_KAPPA">      0.00000000</i>
   <v name="OFIELD_K">      0.00000000      0.00000000      0.00000000</v>
   <i name="OFIELD_Q6_NEAR">      0.00000000</i>
   <i name="OFIELD_Q6_FAR">      0.00000000</i>
   <i name="OFIELD_A">      0.00000000</i>
  </separator>
  <separator name="optional k-points parameters" >
   <i type="int" name="KPOINTS_OPT_MODE">     1</i>
   <i type="logical" name="LKPOINTS_OPT"> F  </i>
  </separator>
 </parameters>
 <atominfo>
  <atoms>       8 </atoms>
  <types>       1 </types>
  <array name="atoms" >
   <dimension dim="1">ion</dimension>
   <field type="string">element</field>
   <field type="int">atomtype</field>
   <set>
    <rc><c>Si</c><c>   1</c></rc>
    <rc><c>Si</c><c>   1</c></rc>
    <rc><c>Si</c><c>   1</c></rc>
    <rc><c>Si</c><c>   1</c></rc>
    <rc><c>Si</c><c>   1</c></rc>
    <rc><c>Si</c><c>   1</c></rc>
    <rc><c>Si</c><c>   1</c></rc>
    <rc><c>Si</c><c>   1</c></rc>
   </set>
  </array>
  <array name="atomtypes" >
   <dimension dim="1">type</dimension>
   <field type="int">atomspertype</field>
   <field type="string">element</field>
   <field>mass</field>
   <field>valence</field>
   <field type="string">pseudopotential</field>
   <set>
    <rc><c>   8</c><c>Si</c><c>     28.08500000</c><c>      4.00000000</c><c>  PAW_PBE Si 05Jan2001                  </c></rc>
   </set>
  </array>
 </atominfo>
 <structure name="initialpos" >
  <crystal>
   <varray name="basis" >
    <v>      -0.00000000       0.00000000       5.44370237 </v>
    <v>      -5.44370237       0.00000000       0.00000000 </v>
    <v>      -2.72185119      -5.44370237       2.72185119 </v>
   </varray>
   <i name="volume">    161.31810740 </i>
   <varray name="rec_basis" >
    <v>       0.00000000       0.09184925       0.18369851 </v>
    <v>      -0.18369851       0.09184925      -0.00000000 </v>
    <v>       0.00000000      -0.18369851       0.00000000 </v>
   </varray>
  </crystal>
  <varray name="positions" >
   <v>       0.00000000       0.00000000       0.99850011 </v>
   <v>       0.75000000       0.25000000       0.50000000 </v>
   <v>       0.50000000       0.50000000       0.00000000 </v>
   <v>       0.25000000       0.75000000       0.50000000 </v>
   <v>       0.37500000       0.87500000       0.75000000 </v>
   <v>       0.12500000       0.12500000       0.25000000 </v>
   <v>       0.87500000       0.37500000       0.75000000 </v>
   <v>       0.62500000       0.62500000       0.25000000 </v>
  </varray>
 </structure>
 <calculation>
  <scstep>
   <time name="dav">    0.99    0.99</time>
   <time name="total">    1.01    1.01</time>
   <energy>
    <i name="alphaZ">     13.35522965 </i>
    <i name="ewald">   -911.95073336 </i>
    <i name="hartreedc">    -44.46042830 </i>
    <i name="XCdc">    -74.52612385 </i>
    <i name="pawpsdc">    704.99039692 </i>
    <i name="pawaedc">   -564.24414232 </i>
    <i name="eentropy">     -0.00014230 </i>
    <i name="bandstr">    119.73989653 </i>
    <i name="atom">    824.53005375 </i>
    <i name="e_fr_energy">     67.43400672 </i>
    <i name="e_wo_entrp">     67.43414902 </i>
    <i name="e_0_energy">     67.43407787 </i>
   </energy>
  </scstep>
  <scstep>
   <time name="dav">    1.17    1.18</time>
   <time name="total">    1.17    1.18</time>
   <energy>
    <i name="e_fr_energy">    -38.98200006 </i>
    <i name="e_wo_entrp">    -38.98196523 </i>
    <i name="e_0_energy">    -38.98198265 </i>
   </energy>
  </scstep>
  <scstep>
   <time name="dav">    1.19    1.19</time>
   <time name="total">    1.19    1.19</time>
   <energy>
    <i name="e_fr_energy">    -44.00304444 </i>
    <i name="e_wo_entrp">    -44.00304444 </i>
    <i name="e_0_energy">    -44.00304444 </i>
   </energy>
  </scstep>
  <scstep>
   <time name="dav">    1.12    1.13</time>
   <time name="total">    1.13    1.13</time>
   <energy>
    <i name="e_fr_energy">    -44.09146765 </i>
    <i name="e_wo_entrp">    -44.09146765 </i>
    <i name="e_0_energy">    -44.09146765 </i>
   </energy>
  </scstep>
  <scstep>
   <time name="dav">    1.18    1.19</time>
   <time name="total">    1.24    1.24</time>
   <energy>
    <i name="e_fr_energy">    -44.09365160 </i>
    <i name="e_wo_entrp">    -44.09365160 </i>
    <i name="e_0_energy">    -44.09365160 </i>
   </energy>
  </scstep>
  <scstep>
   <time name="dav">    1.09    1.09</time>
   <time name="total">    1.16    1.17</time>
   <energy>
    <i name="e_fr_energy">    -43.60710556 </i>
    <i name="e_wo_entrp">    -43.60710556 </i>
    <i name="e_0_energy">    -43.60710556 </i>
   </energy>
  </scstep>
  <scstep>
   <time name="dav">    1.10    1.10</time>
   <time name="total">    1.17    1.17</time>
   <energy>
    <i name="e_fr_energy">    -43.38493251 </i>
    <i name="e_wo_entrp">    -43.38493251 </i>
    <i name="e_0_energy">    -43.38493251 </i>
   </energy>
  </scstep>
  <scstep>
   <time name="dav">    1.12    1.12</time>
   <time name="total">    1.20    1.21</time>
   <energy>
    <i name="e_fr_energy">    -43.38929555 </i>
    <i name="e_wo_entrp">    -43.38929555 </i>
    <i name="e_0_energy">    -43.38929555 </i>
   </energy>
  </scstep>
  <scstep>
   <time name="dav">    1.16    1.16</time>
   <time name="total">    1.23    1.24</time>
   <energy>
    <i name="e_fr_energy">    -43.39009113 </i>
    <i name="e_wo_entrp">    -43.39009113 </i>
    <i name="e_0_energy">    -43.39009113 </i>
   </energy>
  </scstep>
  <scstep>
   <time name="dav">    1.09    1.09</time>
   <time name="total">    1.17    1.17</time>
   <energy>
    <i name="e_fr_energy">    -43.39030909 </i>
    <i name="e_wo_entrp">    -43.39030909 </i>
    <i name="e_0_energy">    -43.39030909 </i>
   </energy>
  </scstep>
  <scstep>
   <time name="dav">    1.16    1.17</time>
   <time name="total">    1.23    1.24</time>
   <energy>
    <i name="e_fr_energy">    -43.39030891 </i>
    <i name="e_wo_entrp">    -43.39030891 </i>
    <i name="e_0_energy">    -43.39030891 </i>
   </energy>
  </scstep>
  <scstep>
   <time name="dav">    1.13    1.13</time>
   <time name="total">    1.20    1.20</time>
   <energy>
    <i name="e_fr_energy">    -43.39031011 </i>
    <i name="e_wo_entrp">    -43.39031011 </i>
    <i name="e_0_energy">    -43.39031011 </i>
   </energy>
  </scstep>
  <scstep>
   <time name="dav">    1.16    1.16</time>
   <time name="total">    1.23    1.23</time>
   <energy>
    <i name="e_fr_energy">    -43.39030974 </i>
    <i name="e_wo_entrp">    -43.39030974 </i>
    <i name="e_0_energy">    -43.39030974 </i>
   </energy>
  </scstep>
  <scstep>
   <time name="dav">    0.96    0.96</time>
   <time name="total">    1.03    1.03</time>
   <energy>
    <i name="e_fr_energy">    -43.39030981 </i>
    <i name="e_wo_entrp">    -43.39030981 </i>
    <i name="e_0_energy">    -43.39030981 </i>
   </energy>
  </scstep>
  <scstep>
   <time name="dav">    0.90    0.90</time>
   <time name="total">    0.97    0.98</time>
   <energy>
    <i name="e_fr_energy">    -43.39030978 </i>
    <i name="e_wo_entrp">    -43.39030978 </i>
    <i name="e_0_energy">    -43.39030978 </i>
   </energy>
  </scstep>
  <scstep>
   <time name="dav">    0.88    0.88</time>
   <time name="total">    0.90    0.90</time>
   <energy>
    <i name="alphaZ">     13.35522965 </i>
    <i name="ewald">   -911.95073336 </i>
    <i name="hartreedc">    -60.02673436 </i>
    <i name="XCdc">    -71.99051858 </i>
    <i name="pawpsdc">   3421.40151132 </i>
    <i name="pawaedc">  -3281.52471582 </i>
    <i name="eentropy">     -0.00000000 </i>
    <i name="bandstr">     22.81559763 </i>
    <i name="atom">    824.53005375 </i>
    <i name="e_fr_energy">    -43.39030978 </i>
    <i name="e_wo_entrp">    -43.39030978 </i>
    <i name="e_0_energy">    -43.39030978 </i>
   </energy>
  </scstep>
  <structure>
   <crystal>
    <varray name="basis" >
     <v>      -0.00000000       0.00000000       5.44370237 </v>
     <v>      -5.44370237       0.00000000       0.00000000 </v>
     <v>      -2.72185119      -5.44370237       2.72185119 </v>
    </varray>
    <i name="volume">    161.31810740 </i>
    <varray name="rec_basis" >
     <v>       0.00000000       0.09184925       0.18369851 </v>
     <v>      -0.18369851       0.09184925      -0.00000000 </v>
     <v>       0.00000000      -0.18369851       0.00000000 </v>
    </varray>
   </crystal>
   <varray name="positions" >
    <v>       0.00000000       0.00000000       0.99850011 </v>
    <v>       0.75000000       0.25000000       0.50000000 </v>
    <v>       0.50000000       0.50000000       0.00000000 </v>
    <v>       0.25000000       0.75000000       0.50000000 </v>
    <v>       0.37500000       0.87500000       0.75000000 </v>
    <v>       0.12500000       0.12500000       0.25000000 </v>
    <v>       0.87500000       0.37500000       0.75000000 </v>
    <v>       0.62500000       0.62500000       0.25000000 </v>
   </varray>
  </structure>
  <varray name="forces" >
   <v>      -0.05210078      -0.10992125       0.05210078 </v>
   <v>      -0.00331838       0.00747862      -0.00002165 </v>
   <v>       0.00182985      -0.01380186      -0.00182985 </v>
   <v>       0.00002165       0.00747862       0.00331838 </v>
   <v>       0.02200404       0.02738483       0.01452412 </v>
   <v>       0.04076692       0.04467954      -0.04076692 </v>
   <v>      -0.01452412       0.02738483      -0.02200404 </v>
   <v>       0.00532083       0.00931667      -0.00532083 </v>
  </varray>
  <varray name="stress" >
   <v>      12.53955046      -0.38205130       0.77529806 </v>
   <v>      -0.38205130      12.53048717       0.38205130 </v>
   <v>       0.77529806       0.38205130      12.53955046 </v>
  </varray>
  <energy>
   <i name="e_fr_energy">    -43.39030978 </i>
   <i name="e_wo_entrp">    -43.39030978 </i>
   <i name="e_0_energy">    -43.39030978 </i>
  </energy>
  <time name="totalsc">   19.00   19.10</time>
  <eigenvalues>
   <array>
    <dimension dim="1">band</dimension>
    <dimension dim="2">kpoint</dimension>
    <dimension dim="3">spin</dimension>
    <field>eigene</field>
    <field>occ</field>
    <set>
     <set comment="spin 1">
      <set comment="kpoint 1">
       <r>   -6.1549    1.0000 </r>
       <r>   -2.0435    1.0000 </r>
       <r>   -2.0309    1.0000 </r>
       <r>   -1.8835    1.0000 </r>
       <r>   -1.8799    1.0000 </r>
       <r>   -1.8761    1.0000 </r>
       <r>   -1.8639    1.0000 </r>
       <r>    1.9318    1.0000 </r>
       <r>    1.9331    1.0000 </r>
       <r>    1.9352    1.0000 </r>
       <r>    1.9386    1.0000 </r>
       <r>    2.9198    1.0000 </r>
       <r>    2.9268    1.0000 </r>
       <r>    5.7435    1.0000 </r>
       <r>    5.7496    1.0000 </r>
       <r>    5.7667    1.0000 </r>
       <r>    6.4735    0.0000 </r>
       <r>    6.4834    0.0000 </r>
       <r>    8.3082    0.0000 </r>
       <r>    8.3182    0.0000 </r>
       <r>    8.3219    0.0000 </r>
       <r>    9.0444    0.0000 </r>
       <r>   10.0133    0.0000 </r>
       <r>   10.0254    0.0000 </r>
      </set>
      <set comment="kpoint 2">
       <r>   -6.0878    1.0000 </r>
       <r>   -2.4677    1.0000 </r>
       <r>   -2.4312    1.0000 </r>
       <r>   -2.3326    1.0000 </r>
       <r>   -1.5928    1.0000 </r>
       <r>   -1.4563    1.0000 </r>
       <r>   -1.3172    1.0000 </r>
       <r>    1.6163    1.0000 </r>
       <r>    1.7324    1.0000 </r>
       <r>    2.3728    1.0000 </r>
       <r>    2.4781    1.0000 </r>
       <r>    2.7716    1.0000 </r>
       <r>    2.8028    1.0000 </r>
       <r>    5.1959    1.0000 </r>
       <r>    5.4854    1.0000 </r>
       <r>    5.6665    1.0000 </r>
       <r>    6.6904    0.0000 </r>
       <r>    6.8721    0.0000 </r>
       <r>    8.2601    0.0000 </r>
       <r>    8.5613    0.0000 </r>
       <r>    8.5658    0.0000 </r>
       <r>    8.8495    0.0000 </r>
       <r>    9.5058    0.0000 </r>
       <r>    9.5995    0.0000 </r>
      </set>
      <set comment="kpoint 3">
       <r>   -5.8875    1.0000 </r>
       <r>   -3.1675    1.0000 </r>
       <r>   -2.7431    1.0000 </r>
       <r>   -2.6789    1.0000 </r>
       <r>   -1.1893    1.0000 </r>
       <r>   -1.1648    1.0000 </r>
       <r>   -0.6503    1.0000 </r>
       <r>    1.4284    1.0000 </r>
       <r>    1.8530    1.0000 </r>
       <r>    2.4121    1.0000 </r>
       <r>    2.6197    1.0000 </r>
       <r>    2.9006    1.0000 </r>
       <r>    3.2033    1.0000 </r>
       <r>    4.1396    1.0000 </r>
       <r>    4.8689    1.0000 </r>
       <r>    5.4177    1.0000 </r>
       <r>    7.4093    0.0000 </r>
       <r>    7.7192    0.0000 </r>
       <r>    7.7354    0.0000 </r>
       <r>    8.1528    0.0000 </r>
       <r>    8.9201    0.0000 </r>
       <r>    9.0412    0.0000 </r>
       <r>    9.1453    0.0000 </r>
       <r>    9.5014    0.0000 </r>
      </set>
      <set comment="kpoint 4">
       <r>   -5.5573    1.0000 </r>
       <r>   -3.8799    1.0000 </r>
       <r>   -2.9531    1.0000 </r>
       <r>   -2.9151    1.0000 </r>
       <r>   -0.9923    1.0000 </r>
       <r>   -0.8680    1.0000 </r>
       <r>    0.1213    1.0000 </r>
       <r>    1.3792    1.0000 </r>
       <r>    2.0170    1.0000 </r>
       <r>    2.2137    1.0000 </r>
       <r>    2.6298    1.0000 </r>
       <r>    3.0271    1.0000 </r>
       <r>    3.4807    1.0000 </r>
       <r>    3.6560    1.0000 </r>
       <r>    4.1347    1.0000 </r>
       <r>    5.0554    1.0000 </r>
       <r>    7.3261    0.0000 </r>
       <r>    8.0905    0.0000 </r>
       <r>    8.4368    0.0000 </r>
       <r>    8.6037    0.0000 </r>
       <r>    8.8404    0.0000 </r>
       <r>    9.2774    0.0000 </r>
       <r>    9.4712    0.0000 </r>
       <r>    9.8964    0.0000 </r>
      </set>
      <set comment="kpoint 5">
       <r>   -5.1036    1.0000 </r>
       <r>   -4.5377    1.0000 </r>
       <r>   -3.0547    1.0000 </r>
       <r>   -3.0387    1.0000 </r>
       <r>   -0.8429    1.0000 </r>
       <r>   -0.7717    1.0000 </r>
       <r>    0.9957    1.0000 </r>
       <r>    1.4682    1.0000 </r>
       <r>    1.6873    1.0000 </r>
       <r>    1.9685    1.0000 </r>
       <r>    2.7477    1.0000 </r>
       <r>    2.9465    1.0000 </r>
       <r>    3.4046    1.0000 </r>
       <r>    3.4359    1.0000 </r>
       <r>    4.0635    1.0000 </r>
       <r>    4.5992    1.0000 </r>
       <r>    7.9952    0.0000 </r>
       <r>    8.1319    0.0000 </r>
       <r>    8.3005    0.0000 </r>
       <r>    9.3191    0.0000 </r>
       <r>    9.5578    0.0000 </r>
       <r>    9.6075    0.0000 </r>
       <r>    9.6455    0.0000 </r>
       <r>    9.8831    0.0000 </r>
      </set>
      <set comment="kpoint 6">
       <r>   -5.9944    1.0000 </r>
       <r>   -2.8047    1.0000 </r>
       <r>   -2.6224    1.0000 </r>
       <r>   -2.6129    1.0000 </r>
       <r>   -1.2308    1.0000 </r>
       <r>   -1.2291    1.0000 </r>
       <r>   -1.1556    1.0000 </r>
       <r>    1.7112    1.0000 </r>
       <r>    1.7154    1.0000 </r>
       <r>    2.4327    1.0000 </r>
       <r>    2.6998    1.0000 </r>
       <r>    2.7027    1.0000 </r>
       <r>    3.0531    1.0000 </r>
       <r>    4.4121    1.0000 </r>
       <r>    5.5089    1.0000 </r>
       <r>    5.5268    1.0000 </r>
       <r>    6.6113    0.0000 </r>
       <r>    7.5085    0.0000 </r>
       <r>    8.2814    0.0000 </r>
       <r>    8.3386    0.0000 </r>
       <r>    8.3447    0.0000 </r>
       <r>    8.6574    0.0000 </r>
       <r>    8.6688    0.0000 </r>
       <r>   10.0342    0.0000 </r>
      </set>
      <set comment="kpoint 7">
       <r>   -5.7693    1.0000 </r>
       <r>   -3.2675    1.0000 </r>
       <r>   -3.0894    1.0000 </r>
       <r>   -2.7859    1.0000 </r>
       <r>   -1.1606    1.0000 </r>
       <r>   -0.7942    1.0000 </r>
       <r>   -0.6307    1.0000 </r>
       <r>    1.6147    1.0000 </r>
       <r>    2.0425    1.0000 </r>
       <r>    2.1585    1.0000 </r>
       <r>    3.0716    1.0000 </r>
       <r>    3.0777    1.0000 </r>
       <r>    3.3258    1.0000 </r>
       <r>    3.3651    1.0000 </r>
       <r>    4.9734    1.0000 </r>
       <r>    5.3931    1.0000 </r>
       <r>    7.0722    0.0000 </r>
       <r>    7.3905    0.0000 </r>
       <r>    7.9821    0.0000 </r>
       <r>    8.2527    0.0000 </r>
       <r>    8.5040    0.0000 </r>
       <r>    8.7478    0.0000 </r>
       <r>    9.2038    0.0000 </r>
       <r>    9.6813    0.0000 </r>
      </set>
      <set comment="kpoint 8">
       <r>   -5.4170    1.0000 </r>
       <r>   -3.9602    1.0000 </r>
       <r>   -3.2710    1.0000 </r>
       <r>   -2.8892    1.0000 </r>
       <r>   -1.1029    1.0000 </r>
       <r>   -0.6205    1.0000 </r>
       <r>    0.1195    1.0000 </r>
       <r>    1.5962    1.0000 </r>
       <r>    2.0370    1.0000 </r>
       <r>    2.3238    1.0000 </r>
       <r>    2.5598    1.0000 </r>
       <r>    3.0760    1.0000 </r>
       <r>    3.5095    1.0000 </r>
       <r>    3.5437    1.0000 </r>
       <r>    4.2461    1.0000 </r>
       <r>    5.0923    1.0000 </r>
       <r>    7.3230    0.0000 </r>
       <r>    7.7826    0.0000 </r>
       <r>    7.9803    0.0000 </r>
       <r>    8.3406    0.0000 </r>
       <r>    8.9582    0.0000 </r>
       <r>    9.5207    0.0000 </r>
       <r>    9.6819    0.0000 </r>
       <r>    9.7514    0.0000 </r>
      </set>
      <set comment="kpoint 9">
       <r>   -4.9462    1.0000 </r>
       <r>   -4.5983    1.0000 </r>
       <r>   -3.3428    1.0000 </r>
       <r>   -2.9058    1.0000 </r>
       <r>   -1.0511    1.0000 </r>
       <r>   -0.6442    1.0000 </r>
       <r>    0.9798    1.0000 </r>
       <r>    1.3560    1.0000 </r>
       <r>    1.6567    1.0000 </r>
       <r>    1.9240    1.0000 </r>
       <r>    3.1885    1.0000 </r>
       <r>    3.2112    1.0000 </r>
       <r>    3.3608    1.0000 </r>
       <r>    3.4908    1.0000 </r>
       <r>    3.9357    1.0000 </r>
       <r>    4.6728    1.0000 </r>
       <r>    7.7311    0.0000 </r>
       <r>    8.2718    0.0000 </r>
       <r>    8.4062    0.0000 </r>
       <r>    9.0643    0.0000 </r>
       <r>    9.1695    0.0000 </r>
       <r>    9.2342    0.0000 </r>
       <r>    9.5914    0.0000 </r>
       <r>   10.2911    0.0000 </r>
      </set>
      <set comment="kpoint 10">
       <r>   -5.1416    1.0000 </r>
       <r>   -4.3731    1.0000 </r>
       <r>   -3.3039    1.0000 </r>
       <r>   -2.8280    1.0000 </r>
       <r>   -1.0561    1.0000 </r>
       <r>   -0.7624    1.0000 </r>
       <r>    0.4903    1.0000 </r>
       <r>    1.7287    1.0000 </r>
       <r>    1.7811    1.0000 </r>
       <r>    1.9336    1.0000 </r>
       <r>    2.7954    1.0000 </r>
       <r>    2.8275    1.0000 </r>
       <r>    3.7762    1.0000 </r>
       <r>    3.9409    1.0000 </r>
       <r>    4.1671    1.0000 </r>
       <r>    4.3241    1.0000 </r>
       <r>    7.7964    0.0000 </r>
       <r>    7.9031    0.0000 </r>
       <r>    8.5174    0.0000 </r>
       <r>    8.9627    0.0000 </r>
       <r>    9.3571    0.0000 </r>
       <r>    9.6854    0.0000 </r>
       <r>    9.7535    0.0000 </r>
       <r>   10.2440    0.0000 </r>
      </set>
      <set comment="kpoint 11">
       <r>   -5.5704    1.0000 </r>
       <r>   -3.7291    1.0000 </r>
       <r>   -3.1571    1.0000 </r>
       <r>   -2.6536    1.0000 </r>
       <r>   -1.2108    1.0000 </r>
       <r>   -0.8972    1.0000 </r>
       <r>   -0.2556    1.0000 </r>
       <r>    1.6810    1.0000 </r>
       <r>    1.7847    1.0000 </r>
       <r>    2.2171    1.0000 </r>
       <r>    2.8012    1.0000 </r>
       <r>    2.9566    1.0000 </r>
       <r>    3.6166    1.0000 </r>
       <r>    3.7695    1.0000 </r>
       <r>    4.6082    1.0000 </r>
       <r>    4.7565    1.0000 </r>
       <r>    7.5823    0.0000 </r>
       <r>    7.8360    0.0000 </r>
       <r>    7.9540    0.0000 </r>
       <r>    8.7261    0.0000 </r>
       <r>    9.2675    0.0000 </r>
       <r>    9.3649    0.0000 </r>
       <r>    9.4745    0.0000 </r>
       <r>    9.9652    0.0000 </r>
      </set>
      <set comment="kpoint 12">
       <r>   -5.8743    1.0000 </r>
       <r>   -3.0817    1.0000 </r>
       <r>   -2.9106    1.0000 </r>
       <r>   -2.3861    1.0000 </r>
       <r>   -1.5454    1.0000 </r>
       <r>   -1.0403    1.0000 </r>
       <r>   -0.8572    1.0000 </r>
       <r>    1.6508    1.0000 </r>
       <r>    1.8112    1.0000 </r>
       <r>    1.9815    1.0000 </r>
       <r>    2.9633    1.0000 </r>
       <r>    3.0791    1.0000 </r>
       <r>    3.1898    1.0000 </r>
       <r>    3.9927    1.0000 </r>
       <r>    4.9731    1.0000 </r>
       <r>    5.3844    1.0000 </r>
       <r>    6.9761    0.0000 </r>
       <r>    8.1908    0.0000 </r>
       <r>    8.2725    0.0000 </r>
       <r>    8.3370    0.0000 </r>
       <r>    8.8017    0.0000 </r>
       <r>    9.0398    0.0000 </r>
       <r>    9.2091    0.0000 </r>
       <r>    9.4157    0.0000 </r>
      </set>
      <set comment="kpoint 13">
       <r>   -6.0477    1.0000 </r>
       <r>   -2.5926    1.0000 </r>
       <r>   -2.5816    1.0000 </r>
       <r>   -2.0837    1.0000 </r>
       <r>   -1.9268    1.0000 </r>
       <r>   -1.2476    1.0000 </r>
       <r>   -1.2381    1.0000 </r>
       <r>    1.6470    1.0000 </r>
       <r>    1.6511    1.0000 </r>
       <r>    2.3585    1.0000 </r>
       <r>    2.6142    1.0000 </r>
       <r>    2.6205    1.0000 </r>
       <r>    3.0126    1.0000 </r>
       <r>    4.8722    1.0000 </r>
       <r>    5.3321    1.0000 </r>
       <r>    5.7136    1.0000 </r>
       <r>    6.5823    0.0000 </r>
       <r>    7.3986    0.0000 </r>
       <r>    8.4206    0.0000 </r>
       <r>    8.5173    0.0000 </r>
       <r>    8.5682    0.0000 </r>
       <r>    9.3637    0.0000 </r>
       <r>    9.3751    0.0000 </r>
       <r>    9.6529    0.0000 </r>
      </set>
      <set comment="kpoint 14">
       <r>   -5.5229    1.0000 </r>
       <r>   -3.3568    1.0000 </r>
       <r>   -3.3103    1.0000 </r>
       <r>   -3.3005    1.0000 </r>
       <r>   -0.7285    1.0000 </r>
       <r>   -0.7265    1.0000 </r>
       <r>   -0.6028    1.0000 </r>
       <r>    2.0945    1.0000 </r>
       <r>    2.1024    1.0000 </r>
       <r>    2.1294    1.0000 </r>
       <r>    2.3454    1.0000 </r>
       <r>    3.4344    1.0000 </r>
       <r>    3.4837    1.0000 </r>
       <r>    3.4850    1.0000 </r>
       <r>    5.0884    1.0000 </r>
       <r>    5.1046    1.0000 </r>
       <r>    7.1113    0.0000 </r>
       <r>    7.2747    0.0000 </r>
       <r>    7.2814    0.0000 </r>
       <r>    7.8655    0.0000 </r>
       <r>    9.1822    0.0000 </r>
       <r>    9.1971    0.0000 </r>
       <r>    9.6022    0.0000 </r>
       <r>   10.1335    0.0000 </r>
      </set>
      <set comment="kpoint 15">
       <r>   -5.1557    1.0000 </r>
       <r>   -3.9425    1.0000 </r>
       <r>   -3.5236    1.0000 </r>
       <r>   -3.2591    1.0000 </r>
       <r>   -0.8361    1.0000 </r>
       <r>   -0.6394    1.0000 </r>
       <r>   -0.0591    1.0000 </r>
       <r>    1.3611    1.0000 </r>
       <r>    2.0868    1.0000 </r>
       <r>    2.3880    1.0000 </r>
       <r>    2.7425    1.0000 </r>
       <r>    3.4849    1.0000 </r>
       <r>    3.6042    1.0000 </r>
       <r>    3.6534    1.0000 </r>
       <r>    4.5846    1.0000 </r>
       <r>    4.9745    1.0000 </r>
       <r>    7.4039    0.0000 </r>
       <r>    7.5652    0.0000 </r>
       <r>    7.6887    0.0000 </r>
       <r>    7.8678    0.0000 </r>
       <r>    9.1158    0.0000 </r>
       <r>    9.5071    0.0000 </r>
       <r>    9.9438    0.0000 </r>
       <r>   10.3309    0.0000 </r>
      </set>
      <set comment="kpoint 16">
       <r>   -4.6825    1.0000 </r>
       <r>   -4.5438    1.0000 </r>
       <r>   -3.5869    1.0000 </r>
       <r>   -3.1234    1.0000 </r>
       <r>   -0.9308    1.0000 </r>
       <r>   -0.7789    1.0000 </r>
       <r>    0.4795    1.0000 </r>
       <r>    0.7461    1.0000 </r>
       <r>    1.9494    1.0000 </r>
       <r>    2.6035    1.0000 </r>
       <r>    3.2283    1.0000 </r>
       <r>    3.3744    1.0000 </r>
       <r>    3.8376    1.0000 </r>
       <r>    3.9216    1.0000 </r>
       <r>    3.9257    1.0000 </r>
       <r>    4.6756    1.0000 </r>
       <r>    7.7092    0.0000 </r>
       <r>    8.1176    0.0000 </r>
       <r>    8.6091    0.0000 </r>
       <r>    8.7103    0.0000 </r>
       <r>    8.9485    0.0000 </r>
       <r>    9.0711    0.0000 </r>
       <r>    9.4640    0.0000 </r>
       <r>    9.7804    0.0000 </r>
      </set>
      <set comment="kpoint 17">
       <r>   -5.0555    1.0000 </r>
       <r>   -4.1345    1.0000 </r>
       <r>   -3.5469    1.0000 </r>
       <r>   -2.9038    1.0000 </r>
       <r>   -1.0542    1.0000 </r>
       <r>   -0.9051    1.0000 </r>
       <r>   -0.2569    1.0000 </r>
       <r>    1.6421    1.0000 </r>
       <r>    1.6559    1.0000 </r>
       <r>    2.5740    1.0000 </r>
       <r>    3.1941    1.0000 </r>
       <r>    3.2319    1.0000 </r>
       <r>    3.7264    1.0000 </r>
       <r>    4.1069    1.0000 </r>
       <r>    4.2833    1.0000 </r>
       <r>    4.5191    1.0000 </r>
       <r>    7.9697    0.0000 </r>
       <r>    8.0831    0.0000 </r>
       <r>    8.2802    0.0000 </r>
       <r>    8.3597    0.0000 </r>
       <r>    9.0209    0.0000 </r>
       <r>    9.5103    0.0000 </r>
       <r>    9.7983    0.0000 </r>
       <r>   10.2767    0.0000 </r>
      </set>
      <set comment="kpoint 18">
       <r>   -5.4544    1.0000 </r>
       <r>   -3.5831    1.0000 </r>
       <r>   -3.4096    1.0000 </r>
       <r>   -2.6171    1.0000 </r>
       <r>   -1.2827    1.0000 </r>
       <r>   -0.9721    1.0000 </r>
       <r>   -0.7881    1.0000 </r>
       <r>    1.4778    1.0000 </r>
       <r>    2.4088    1.0000 </r>
       <r>    2.5815    1.0000 </r>
       <r>    2.6010    1.0000 </r>
       <r>    3.2934    1.0000 </r>
       <r>    3.8477    1.0000 </r>
       <r>    3.9001    1.0000 </r>
       <r>    3.9969    1.0000 </r>
       <r>    5.1714    1.0000 </r>
       <r>    7.3534    0.0000 </r>
       <r>    8.0347    0.0000 </r>
       <r>    8.4554    0.0000 </r>
       <r>    8.6112    0.0000 </r>
       <r>    8.9575    0.0000 </r>
       <r>    8.9984    0.0000 </r>
       <r>    9.7022    0.0000 </r>
       <r>    9.7738    0.0000 </r>
      </set>
      <set comment="kpoint 19">
       <r>   -5.7292    1.0000 </r>
       <r>   -3.1911    1.0000 </r>
       <r>   -3.1796    1.0000 </r>
       <r>   -2.3333    1.0000 </r>
       <r>   -1.5788    1.0000 </r>
       <r>   -1.0026    1.0000 </r>
       <r>   -0.9915    1.0000 </r>
       <r>    1.6019    1.0000 </r>
       <r>    2.0908    1.0000 </r>
       <r>    2.1007    1.0000 </r>
       <r>    3.2642    1.0000 </r>
       <r>    3.4181    1.0000 </r>
       <r>    3.4248    1.0000 </r>
       <r>    3.4279    1.0000 </r>
       <r>    4.4010    1.0000 </r>
       <r>    5.5393    1.0000 </r>
       <r>    6.8732    0.0000 </r>
       <r>    8.7438    0.0000 </r>
       <r>    8.7533    0.0000 </r>
       <r>    8.9389    0.0000 </r>
       <r>    8.9497    0.0000 </r>
       <r>    8.9606    0.0000 </r>
       <r>    8.9616    0.0000 </r>
       <r>    8.9707    0.0000 </r>
      </set>
      <set comment="kpoint 20">
       <r>   -4.7874    1.0000 </r>
       <r>   -3.8229    1.0000 </r>
       <r>   -3.8146    1.0000 </r>
       <r>   -3.6857    1.0000 </r>
       <r>   -0.8123    1.0000 </r>
       <r>   -0.2573    1.0000 </r>
       <r>   -0.2544    1.0000 </r>
       <r>    0.4439    1.0000 </r>
       <r>    2.5565    1.0000 </r>
       <r>    2.5577    1.0000 </r>
       <r>    2.9930    1.0000 </r>
       <r>    3.6417    1.0000 </r>
       <r>    3.6496    1.0000 </r>
       <r>    3.9866    1.0000 </r>
       <r>    4.7524    1.0000 </r>
       <r>    4.7680    1.0000 </r>
       <r>    7.4942    0.0000 </r>
       <r>    7.7910    0.0000 </r>
       <r>    7.9945    0.0000 </r>
       <r>    7.9993    0.0000 </r>
       <r>    9.2510    0.0000 </r>
       <r>    9.2688    0.0000 </r>
       <r>    9.8482    0.0000 </r>
       <r>    9.9651    0.0000 </r>
      </set>
      <set comment="kpoint 21">
       <r>   -4.3723    1.0000 </r>
       <r>   -4.3432    1.0000 </r>
       <r>   -3.7521    1.0000 </r>
       <r>   -3.5917    1.0000 </r>
       <r>   -0.9817    1.0000 </r>
       <r>   -0.4463    1.0000 </r>
       <r>   -0.3358    1.0000 </r>
       <r>    0.4850    1.0000 </r>
       <r>    2.0599    1.0000 </r>
       <r>    2.8006    1.0000 </r>
       <r>    3.4962    1.0000 </r>
       <r>    3.6818    1.0000 </r>
       <r>    4.1664    1.0000 </r>
       <r>    4.2395    1.0000 </r>
       <r>    4.3723    1.0000 </r>
       <r>    4.6495    1.0000 </r>
       <r>    7.5844    0.0000 </r>
       <r>    8.1045    0.0000 </r>
       <r>    8.5158    0.0000 </r>
       <r>    8.8245    0.0000 </r>
       <r>    8.9565    0.0000 </r>
       <r>    9.1007    0.0000 </r>
       <r>    9.2667    0.0000 </r>
       <r>    9.3380    0.0000 </r>
      </set>
      <set comment="kpoint 22">
       <r>   -4.8459    1.0000 </r>
       <r>   -3.8969    1.0000 </r>
       <r>   -3.7234    1.0000 </r>
       <r>   -3.2761    1.0000 </r>
       <r>   -1.0717    1.0000 </r>
       <r>   -0.8898    1.0000 </r>
       <r>   -0.6797    1.0000 </r>
       <r>    1.2926    1.0000 </r>
       <r>    1.5827    1.0000 </r>
       <r>    2.9960    1.0000 </r>
       <r>    3.5483    1.0000 </r>
       <r>    3.7523    1.0000 </r>
       <r>    3.7937    1.0000 </r>
       <r>    4.3631    1.0000 </r>
       <r>    4.4077    1.0000 </r>
       <r>    4.7921    1.0000 </r>
       <r>    7.8738    0.0000 </r>
       <r>    7.9437    0.0000 </r>
       <r>    7.9501    0.0000 </r>
       <r>    8.8342    0.0000 </r>
       <r>    8.9819    0.0000 </r>
       <r>    9.1070    0.0000 </r>
       <r>    9.1684    0.0000 </r>
       <r>    9.5837    0.0000 </r>
      </set>
      <set comment="kpoint 23">
       <r>   -5.2109    1.0000 </r>
       <r>   -3.6095    1.0000 </r>
       <r>   -3.5978    1.0000 </r>
       <r>   -2.9104    1.0000 </r>
       <r>   -1.0723    1.0000 </r>
       <r>   -1.0600    1.0000 </r>
       <r>   -1.0014    1.0000 </r>
       <r>    1.3769    1.0000 </r>
       <r>    2.0384    1.0000 </r>
       <r>    3.1587    1.0000 </r>
       <r>    3.1719    1.0000 </r>
       <r>    3.3629    1.0000 </r>
       <r>    3.6625    1.0000 </r>
       <r>    4.1187    1.0000 </r>
       <r>    4.1264    1.0000 </r>
       <r>    5.1998    1.0000 </r>
       <r>    7.3339    0.0000 </r>
       <r>    8.3153    0.0000 </r>
       <r>    8.3189    0.0000 </r>
       <r>    8.7789    0.0000 </r>
       <r>    8.8726    0.0000 </r>
       <r>    8.8852    0.0000 </r>
       <r>    9.3004    0.0000 </r>
       <r>    9.5917    0.0000 </r>
      </set>
      <set comment="kpoint 24">
       <r>   -4.0930    1.0000 </r>
       <r>   -4.0849    1.0000 </r>
       <r>   -4.0031    1.0000 </r>
       <r>   -3.8296    1.0000 </r>
       <r>   -1.1229    1.0000 </r>
       <r>   -0.9416    1.0000 </r>
       <r>    0.1929    1.0000 </r>
       <r>    0.1949    1.0000 </r>
       <r>    2.1445    1.0000 </r>
       <r>    2.1504    1.0000 </r>
       <r>    4.2717    1.0000 </r>
       <r>    4.2756    1.0000 </r>
       <r>    4.2910    1.0000 </r>
       <r>    4.4758    1.0000 </r>
       <r>    4.5778    1.0000 </r>
       <r>    4.5929    1.0000 </r>
       <r>    7.2939    0.0000 </r>
       <r>    7.5463    0.0000 </r>
       <r>    8.4475    0.0000 </r>
       <r>    8.4606    0.0000 </r>
       <r>    9.0288    0.0000 </r>
       <r>    9.1131    0.0000 </r>
       <r>    9.1309    0.0000 </r>
       <r>    9.2564    0.0000 </r>
      </set>
      <set comment="kpoint 25">
       <r>   -4.5189    1.0000 </r>
       <r>   -3.8232    1.0000 </r>
       <r>   -3.8114    1.0000 </r>
       <r>   -3.7098    1.0000 </r>
       <r>   -1.1660    1.0000 </r>
       <r>   -1.1536    1.0000 </r>
       <r>   -0.1997    1.0000 </r>
       <r>    0.8184    1.0000 </r>
       <r>    1.7133    1.0000 </r>
       <r>    2.4240    1.0000 </r>
       <r>    4.1680    1.0000 </r>
       <r>    4.3103    1.0000 </r>
       <r>    4.3261    1.0000 </r>
       <r>    4.5127    1.0000 </r>
       <r>    4.5204    1.0000 </r>
       <r>    4.7135    1.0000 </r>
       <r>    7.4828    0.0000 </r>
       <r>    7.4856    0.0000 </r>
       <r>    7.9103    0.0000 </r>
       <r>    8.4720    0.0000 </r>
       <r>    9.0505    0.0000 </r>
       <r>    9.0638    0.0000 </r>
       <r>    9.1922    0.0000 </r>
       <r>    9.2039    0.0000 </r>
      </set>
      <set comment="kpoint 26">
       <r>   -6.0870    1.0000 </r>
       <r>   -2.9545    1.0000 </r>
       <r>   -1.9089    1.0000 </r>
       <r>   -1.9059    1.0000 </r>
       <r>   -1.9016    1.0000 </r>
       <r>   -1.8902    1.0000 </r>
       <r>   -1.0379    1.0000 </r>
       <r>    2.0501    1.0000 </r>
       <r>    2.0510    1.0000 </r>
       <r>    2.0544    1.0000 </r>
       <r>    2.0566    1.0000 </r>
       <r>    2.9810    1.0000 </r>
       <r>    2.9881    1.0000 </r>
       <r>    5.3295    1.0000 </r>
       <r>    5.4851    1.0000 </r>
       <r>    5.5019    1.0000 </r>
       <r>    6.3452    0.0000 </r>
       <r>    6.7954    0.0000 </r>
       <r>    8.1558    0.0000 </r>
       <r>    8.6553    0.0000 </r>
       <r>    8.6637    0.0000 </r>
       <r>    8.9158    0.0000 </r>
       <r>    8.9234    0.0000 </r>
       <r>    8.9287    0.0000 </r>
      </set>
      <set comment="kpoint 27">
       <r>   -6.0803    1.0000 </r>
       <r>   -2.5317    1.0000 </r>
       <r>   -2.4886    1.0000 </r>
       <r>   -2.3130    1.0000 </r>
       <r>   -1.4867    1.0000 </r>
       <r>   -1.4813    1.0000 </r>
       <r>   -1.2968    1.0000 </r>
       <r>    1.6128    1.0000 </r>
       <r>    1.7616    1.0000 </r>
       <r>    2.3669    1.0000 </r>
       <r>    2.5056    1.0000 </r>
       <r>    2.7751    1.0000 </r>
       <r>    2.8148    1.0000 </r>
       <r>    5.1292    1.0000 </r>
       <r>    5.4550    1.0000 </r>
       <r>    5.6796    1.0000 </r>
       <r>    6.6767    0.0000 </r>
       <r>    6.9054    0.0000 </r>
       <r>    8.3004    0.0000 </r>
       <r>    8.5455    0.0000 </r>
       <r>    8.5571    0.0000 </r>
       <r>    8.7124    0.0000 </r>
       <r>    9.4513    0.0000 </r>
       <r>    9.5721    0.0000 </r>
      </set>
      <set comment="kpoint 28">
       <r>   -5.9396    1.0000 </r>
       <r>   -2.9613    1.0000 </r>
       <r>   -2.8947    1.0000 </r>
       <r>   -2.0717    1.0000 </r>
       <r>   -1.8757    1.0000 </r>
       <r>   -0.9496    1.0000 </r>
       <r>   -0.8742    1.0000 </r>
       <r>    1.5305    1.0000 </r>
       <r>    1.5865    1.0000 </r>
       <r>    2.4374    1.0000 </r>
       <r>    2.4652    1.0000 </r>
       <r>    3.0010    1.0000 </r>
       <r>    3.0481    1.0000 </r>
       <r>    4.6246    1.0000 </r>
       <r>    5.0783    1.0000 </r>
       <r>    5.0929    1.0000 </r>
       <r>    7.4792    0.0000 </r>
       <r>    7.5199    0.0000 </r>
       <r>    7.8702    0.0000 </r>
       <r>    8.6264    0.0000 </r>
       <r>    8.9006    0.0000 </r>
       <r>    9.2402    0.0000 </r>
       <r>    9.2486    0.0000 </r>
       <r>   10.0025    0.0000 </r>
      </set>
      <set comment="kpoint 29">
       <r>   -5.6664    1.0000 </r>
       <r>   -3.5626    1.0000 </r>
       <r>   -3.3167    1.0000 </r>
       <r>   -2.1839    1.0000 </r>
       <r>   -1.6532    1.0000 </r>
       <r>   -0.5842    1.0000 </r>
       <r>   -0.3037    1.0000 </r>
       <r>    1.5385    1.0000 </r>
       <r>    1.7566    1.0000 </r>
       <r>    2.0770    1.0000 </r>
       <r>    2.2262    1.0000 </r>
       <r>    3.6407    1.0000 </r>
       <r>    3.6461    1.0000 </r>
       <r>    3.7280    1.0000 </r>
       <r>    4.5380    1.0000 </r>
       <r>    4.6305    1.0000 </r>
       <r>    7.5079    0.0000 </r>
       <r>    7.9521    0.0000 </r>
       <r>    8.4633    0.0000 </r>
       <r>    8.5608    0.0000 </r>
       <r>    8.6558    0.0000 </r>
       <r>    9.8814    0.0000 </r>
       <r>    9.9216    0.0000 </r>
       <r>   10.0719    0.0000 </r>
      </set>
      <set comment="kpoint 30">
       <r>   -5.2647    1.0000 </r>
       <r>   -4.2238    1.0000 </r>
       <r>   -3.5533    1.0000 </r>
       <r>   -2.3964    1.0000 </r>
       <r>   -1.3814    1.0000 </r>
       <r>   -0.3587    1.0000 </r>
       <r>    0.4541    1.0000 </r>
       <r>    1.6197    1.0000 </r>
       <r>    1.7521    1.0000 </r>
       <r>    2.2093    1.0000 </r>
       <r>    2.3079    1.0000 </r>
       <r>    2.5354    1.0000 </r>
       <r>    3.9248    1.0000 </r>
       <r>    4.0359    1.0000 </r>
       <r>    4.2438    1.0000 </r>
       <r>    4.2516    1.0000 </r>
       <r>    7.3098    0.0000 </r>
       <r>    7.8261    0.0000 </r>
       <r>    8.7551    0.0000 </r>
       <r>    9.4189    0.0000 </r>
       <r>    9.5240    0.0000 </r>
       <r>    9.6024    0.0000 </r>
       <r>    9.6979    0.0000 </r>
       <r>   10.4440    0.0000 </r>
      </set>
      <set comment="kpoint 31">
       <r>   -4.8202    1.0000 </r>
       <r>   -4.7416    1.0000 </r>
       <r>   -3.6687    1.0000 </r>
       <r>   -2.5080    1.0000 </r>
       <r>   -1.3031    1.0000 </r>
       <r>   -0.1838    1.0000 </r>
       <r>    1.3208    1.0000 </r>
       <r>    1.4698    1.0000 </r>
       <r>    1.5388    1.0000 </r>
       <r>    1.8249    1.0000 </r>
       <r>    2.7078    1.0000 </r>
       <r>    2.8260    1.0000 </r>
       <r>    3.3106    1.0000 </r>
       <r>    3.7079    1.0000 </r>
       <r>    3.8334    1.0000 </r>
       <r>    4.8036    1.0000 </r>
       <r>    7.2991    0.0000 </r>
       <r>    8.5897    0.0000 </r>
       <r>    8.7240    0.0000 </r>
       <r>    8.8376    0.0000 </r>
       <r>    8.8453    0.0000 </r>
       <r>    9.2365    0.0000 </r>
       <r>    9.7921    0.0000 </r>
       <r>   10.4903    0.0000 </r>
      </set>
      <set comment="kpoint 32">
       <r>   -5.3189    1.0000 </r>
       <r>   -4.1099    1.0000 </r>
       <r>   -3.6625    1.0000 </r>
       <r>   -2.5161    1.0000 </r>
       <r>   -1.3601    1.0000 </r>
       <r>   -0.1158    1.0000 </r>
       <r>    0.4829    1.0000 </r>
       <r>    1.4580    1.0000 </r>
       <r>    2.1368    1.0000 </r>
       <r>    2.2890    1.0000 </r>
       <r>    2.7589    1.0000 </r>
       <r>    3.2092    1.0000 </r>
       <r>    3.2373    1.0000 </r>
       <r>    3.3783    1.0000 </r>
       <r>    3.5553    1.0000 </r>
       <r>    5.2446    1.0000 </r>
       <r>    7.3658    0.0000 </r>
       <r>    7.4676    0.0000 </r>
       <r>    8.4930    0.0000 </r>
       <r>    8.5436    0.0000 </r>
       <r>    8.8280    0.0000 </r>
       <r>    9.0395    0.0000 </r>
       <r>    9.2854    0.0000 </r>
       <r>    9.6039    0.0000 </r>
      </set>
      <set comment="kpoint 33">
       <r>   -5.7022    1.0000 </r>
       <r>   -3.5370    1.0000 </r>
       <r>   -3.3923    1.0000 </r>
       <r>   -2.4193    1.0000 </r>
       <r>   -1.4798    1.0000 </r>
       <r>   -0.4130    1.0000 </r>
       <r>   -0.2486    1.0000 </r>
       <r>    1.5190    1.0000 </r>
       <r>    2.3245    1.0000 </r>
       <r>    2.5159    1.0000 </r>
       <r>    2.9006    1.0000 </r>
       <r>    2.9785    1.0000 </r>
       <r>    3.2974    1.0000 </r>
       <r>    3.3401    1.0000 </r>
       <r>    4.3356    1.0000 </r>
       <r>    5.5153    1.0000 </r>
       <r>    6.9775    0.0000 </r>
       <r>    7.4529    0.0000 </r>
       <r>    7.8022    0.0000 </r>
       <r>    8.1359    0.0000 </r>
       <r>    8.4079    0.0000 </r>
       <r>    8.7532    0.0000 </r>
       <r>    8.7642    0.0000 </r>
       <r>    9.0219    0.0000 </r>
      </set>
      <set comment="kpoint 34">
       <r>   -5.9600    1.0000 </r>
       <r>   -3.2971    1.0000 </r>
       <r>   -2.6312    1.0000 </r>
       <r>   -2.2160    1.0000 </r>
       <r>   -1.6446    1.0000 </r>
       <r>   -1.2101    1.0000 </r>
       <r>   -0.5915    1.0000 </r>
       <r>    1.7206    1.0000 </r>
       <r>    2.0643    1.0000 </r>
       <r>    2.4445    1.0000 </r>
       <r>    2.7384    1.0000 </r>
       <r>    2.8628    1.0000 </r>
       <r>    2.9655    1.0000 </r>
       <r>    4.4262    1.0000 </r>
       <r>    5.0561    1.0000 </r>
       <r>    5.5755    1.0000 </r>
       <r>    6.6479    0.0000 </r>
       <r>    7.2512    0.0000 </r>
       <r>    7.6562    0.0000 </r>
       <r>    8.2820    0.0000 </r>
       <r>    8.2926    0.0000 </r>
       <r>    8.5651    0.0000 </r>
       <r>    8.7365    0.0000 </r>
       <r>    8.8661    0.0000 </r>
      </set>
      <set comment="kpoint 35">
       <r>   -6.0469    1.0000 </r>
       <r>   -2.5898    1.0000 </r>
       <r>   -2.5805    1.0000 </r>
       <r>   -2.1413    1.0000 </r>
       <r>   -1.8682    1.0000 </r>
       <r>   -1.2486    1.0000 </r>
       <r>   -1.2461    1.0000 </r>
       <r>    1.6533    1.0000 </r>
       <r>    1.6568    1.0000 </r>
       <r>    2.3670    1.0000 </r>
       <r>    2.6145    1.0000 </r>
       <r>    2.6170    1.0000 </r>
       <r>    3.0062    1.0000 </r>
       <r>    4.8775    1.0000 </r>
       <r>    5.3380    1.0000 </r>
       <r>    5.6911    1.0000 </r>
       <r>    6.5730    0.0000 </r>
       <r>    7.4096    0.0000 </r>
       <r>    8.4360    0.0000 </r>
       <r>    8.4869    0.0000 </r>
       <r>    8.5845    0.0000 </r>
       <r>    9.2988    0.0000 </r>
       <r>    9.3060    0.0000 </r>
       <r>    9.7237    0.0000 </r>
      </set>
      <set comment="kpoint 36">
       <r>   -5.8803    1.0000 </r>
       <r>   -3.0574    1.0000 </r>
       <r>   -2.9257    1.0000 </r>
       <r>   -2.3103    1.0000 </r>
       <r>   -1.6225    1.0000 </r>
       <r>   -1.0305    1.0000 </r>
       <r>   -0.8876    1.0000 </r>
       <r>    1.6728    1.0000 </r>
       <r>    1.7942    1.0000 </r>
       <r>    1.9784    1.0000 </r>
       <r>    2.9499    1.0000 </r>
       <r>    3.0824    1.0000 </r>
       <r>    3.1695    1.0000 </r>
       <r>    4.0612    1.0000 </r>
       <r>    4.9370    1.0000 </r>
       <r>    5.3819    1.0000 </r>
       <r>    6.9604    0.0000 </r>
       <r>    8.1767    0.0000 </r>
       <r>    8.3378    0.0000 </r>
       <r>    8.4018    0.0000 </r>
       <r>    8.8455    0.0000 </r>
       <r>    9.1335    0.0000 </r>
       <r>    9.1863    0.0000 </r>
       <r>    9.3194    0.0000 </r>
      </set>
      <set comment="kpoint 37">
       <r>   -5.5827    1.0000 </r>
       <r>   -3.6955    1.0000 </r>
       <r>   -3.1894    1.0000 </r>
       <r>   -2.5845    1.0000 </r>
       <r>   -1.2743    1.0000 </r>
       <r>   -0.8759    1.0000 </r>
       <r>   -0.3066    1.0000 </r>
       <r>    1.7100    1.0000 </r>
       <r>    1.7674    1.0000 </r>
       <r>    2.1832    1.0000 </r>
       <r>    2.7734    1.0000 </r>
       <r>    3.0364    1.0000 </r>
       <r>    3.6279    1.0000 </r>
       <r>    3.7758    1.0000 </r>
       <r>    4.5943    1.0000 </r>
       <r>    4.7422    1.0000 </r>
       <r>    7.6515    0.0000 </r>
       <r>    7.8139    0.0000 </r>
       <r>    7.9133    0.0000 </r>
       <r>    8.8552    0.0000 </r>
       <r>    9.2262    0.0000 </r>
       <r>    9.3245    0.0000 </r>
       <r>    9.4685    0.0000 </r>
       <r>    9.9725    0.0000 </r>
      </set>
      <set comment="kpoint 38">
       <r>   -5.1597    1.0000 </r>
       <r>   -4.3386    1.0000 </r>
       <r>   -3.3513    1.0000 </r>
       <r>   -2.7720    1.0000 </r>
       <r>   -1.0946    1.0000 </r>
       <r>   -0.7316    1.0000 </r>
       <r>    0.4245    1.0000 </r>
       <r>    1.7101    1.0000 </r>
       <r>    1.8128    1.0000 </r>
       <r>    2.0088    1.0000 </r>
       <r>    2.7493    1.0000 </r>
       <r>    2.7712    1.0000 </r>
       <r>    3.8412    1.0000 </r>
       <r>    3.9773    1.0000 </r>
       <r>    4.1867    1.0000 </r>
       <r>    4.2783    1.0000 </r>
       <r>    7.7354    0.0000 </r>
       <r>    7.8816    0.0000 </r>
       <r>    8.6268    0.0000 </r>
       <r>    8.9360    0.0000 </r>
       <r>    9.2388    0.0000 </r>
       <r>    9.6889    0.0000 </r>
       <r>    9.8424    0.0000 </r>
       <r>   10.2587    0.0000 </r>
      </set>
      <set comment="kpoint 39">
       <r>   -4.9148    1.0000 </r>
       <r>   -4.6210    1.0000 </r>
       <r>   -3.4038    1.0000 </r>
       <r>   -2.8657    1.0000 </r>
       <r>   -1.0693    1.0000 </r>
       <r>   -0.6005    1.0000 </r>
       <r>    1.0444    1.0000 </r>
       <r>    1.2787    1.0000 </r>
       <r>    1.6459    1.0000 </r>
       <r>    1.9592    1.0000 </r>
       <r>    3.1130    1.0000 </r>
       <r>    3.2447    1.0000 </r>
       <r>    3.4338    1.0000 </r>
       <r>    3.4428    1.0000 </r>
       <r>    3.9125    1.0000 </r>
       <r>    4.7003    1.0000 </r>
       <r>    7.6529    0.0000 </r>
       <r>    8.3393    0.0000 </r>
       <r>    8.4878    0.0000 </r>
       <r>    9.0075    0.0000 </r>
       <r>    9.1633    0.0000 </r>
       <r>    9.1920    0.0000 </r>
       <r>    9.4902    0.0000 </r>
       <r>   10.2394    0.0000 </r>
      </set>
      <set comment="kpoint 40">
       <r>   -5.3905    1.0000 </r>
       <r>   -3.9854    1.0000 </r>
       <r>   -3.3440    1.0000 </r>
       <r>   -2.8667    1.0000 </r>
       <r>   -1.1086    1.0000 </r>
       <r>   -0.5556    1.0000 </r>
       <r>    0.1696    1.0000 </r>
       <r>    1.5903    1.0000 </r>
       <r>    2.0762    1.0000 </r>
       <r>    2.2380    1.0000 </r>
       <r>    2.5891    1.0000 </r>
       <r>    3.1290    1.0000 </r>
       <r>    3.4946    1.0000 </r>
       <r>    3.5089    1.0000 </r>
       <r>    4.1908    1.0000 </r>
       <r>    5.1217    1.0000 </r>
       <r>    7.3289    0.0000 </r>
       <r>    7.6863    0.0000 </r>
       <r>    8.0160    0.0000 </r>
       <r>    8.3815    0.0000 </r>
       <r>    8.9470    0.0000 </r>
       <r>    9.3930    0.0000 </r>
       <r>    9.7055    0.0000 </r>
       <r>    9.7273    0.0000 </r>
      </set>
      <set comment="kpoint 41">
       <r>   -5.7487    1.0000 </r>
[...]
       <r>   -3.8948    1.0000 </r>
       <r>   -3.6016    1.0000 </r>
       <r>   -0.8944    1.0000 </r>
       <r>   -0.5603    1.0000 </r>
       <r>   -0.3003    1.0000 </r>
       <r>    0.6917    1.0000 </r>
       <r>    1.8724    1.0000 </r>
       <r>    2.5811    1.0000 </r>
       <r>    3.6325    1.0000 </r>
       <r>    3.7964    1.0000 </r>
       <r>    4.1526    1.0000 </r>
       <r>    4.2349    1.0000 </r>
       <r>    4.4074    1.0000 </r>
       <r>    4.6512    1.0000 </r>
       <r>    7.6138    0.0000 </r>
       <r>    7.9453    0.0000 </r>
       <r>    8.7266    0.0000 </r>
       <r>    8.7868    0.0000 </r>
       <r>    8.9829    0.0000 </r>
       <r>    9.2015    0.0000 </r>
       <r>    9.2093    0.0000 </r>
       <r>    9.3434    0.0000 </r>
      </set>
      <set comment="kpoint 183">
       <r>   -4.2955    1.0000 </r>
       <r>   -4.2825    1.0000 </r>
       <r>   -3.8874    1.0000 </r>
       <r>   -3.8765    1.0000 </r>
       <r>   -0.3224    1.0000 </r>
       <r>   -0.3124    1.0000 </r>
       <r>    0.1246    1.0000 </r>
       <r>    0.1358    1.0000 </r>
       <r>    2.2098    1.0000 </r>
       <r>    2.2164    1.0000 </r>
       <r>    3.4659    1.0000 </r>
       <r>    3.4801    1.0000 </r>
       <r>    4.1814    1.0000 </r>
       <r>    4.1834    1.0000 </r>
       <r>    4.3545    1.0000 </r>
       <r>    4.3715    1.0000 </r>
       <r>    7.8628    0.0000 </r>
       <r>    7.8676    0.0000 </r>
       <r>    8.6017    0.0000 </r>
       <r>    8.6113    0.0000 </r>
       <r>    9.0222    0.0000 </r>
       <r>    9.0272    0.0000 </r>
       <r>    9.4638    0.0000 </r>
       <r>    9.4742    0.0000 </r>
      </set>
      <set comment="kpoint 184">
       <r>   -4.5116    1.0000 </r>
       <r>   -3.8285    1.0000 </r>
       <r>   -3.8178    1.0000 </r>
       <r>   -3.7111    1.0000 </r>
       <r>   -1.1411    1.0000 </r>
       <r>   -1.1340    1.0000 </r>
       <r>   -0.2518    1.0000 </r>
       <r>    0.7417    1.0000 </r>
       <r>    1.8043    1.0000 </r>
       <r>    2.5283    1.0000 </r>
       <r>    4.1636    1.0000 </r>
       <r>    4.2696    1.0000 </r>
       <r>    4.2755    1.0000 </r>
       <r>    4.4798    1.0000 </r>
       <r>    4.4882    1.0000 </r>
       <r>    4.7003    1.0000 </r>
       <r>    7.5487    0.0000 </r>
       <r>    7.5517    0.0000 </r>
       <r>    7.9087    0.0000 </r>
       <r>    8.4506    0.0000 </r>
       <r>    9.0377    0.0000 </r>
       <r>    9.0387    0.0000 </r>
       <r>    9.2568    0.0000 </r>
       <r>    9.2589    0.0000 </r>
      </set>
      <set comment="kpoint 185">
       <r>   -4.1045    1.0000 </r>
       <r>   -4.0938    1.0000 </r>
       <r>   -3.9116    1.0000 </r>
       <r>   -3.9000    1.0000 </r>
       <r>   -1.0740    1.0000 </r>
       <r>   -1.0659    1.0000 </r>
       <r>    0.2770    1.0000 </r>
       <r>    0.2884    1.0000 </r>
       <r>    2.0485    1.0000 </r>
       <r>    2.0558    1.0000 </r>
       <r>    4.2592    1.0000 </r>
       <r>    4.2750    1.0000 </r>
       <r>    4.5019    1.0000 </r>
       <r>    4.5045    1.0000 </r>
       <r>    4.5342    1.0000 </r>
       <r>    4.5519    1.0000 </r>
       <r>    7.3593    0.0000 </r>
       <r>    7.3601    0.0000 </r>
       <r>    8.4341    0.0000 </r>
       <r>    8.4473    0.0000 </r>
       <r>    9.0764    0.0000 </r>
       <r>    9.0857    0.0000 </r>
       <r>    9.1554    0.0000 </r>
       <r>    9.1639    0.0000 </r>
      </set>
     </set>
    </set>
   </array>
  </eigenvalues>
  <separator name="orbital magnetization" >
   <v name="MAGDIPOLOUT">      0.00000000      0.00000000      0.00000000</v>
  </separator>
  <dos>
   <i name="efermi">      5.83184377 </i>
   <total>
    <array>
     <dimension dim="1">gridpoints</dimension>
     <dimension dim="2">spin</dimension>
     <field>energy</field>
     <field>total</field>
     <field>integrated</field>
     <set>
      <set comment="spin 1">
       <r>    -7.0041     0.0000     0.0000 </r>
       <r>    -6.9418     0.0000     0.0000 </r>
       <r>    -6.8795     0.0000     0.0000 </r>
       <r>    -6.8173     0.0000     0.0000 </r>
       <r>    -6.7550     0.0000     0.0000 </r>
       <r>    -6.6927     0.0000     0.0000 </r>
       <r>    -6.6304     0.0000     0.0000 </r>
       <r>    -6.5682     0.0000     0.0000 </r>
       <r>    -6.5059     0.0000     0.0000 </r>
       <r>    -6.4436     0.0000     0.0000 </r>
       <r>    -6.3813     0.0000     0.0000 </r>
       <r>    -6.3191     0.0000     0.0000 </r>
       <r>    -6.2568     0.0000     0.0000 </r>
       <r>    -6.1945     0.0000     0.0000 </r>
       <r>    -6.1323     0.0495     0.0031 </r>
       <r>    -6.0700     0.4796     0.0330 </r>
       <r>    -6.0077     0.2161     0.0465 </r>
       <r>    -5.9454     0.6550     0.0873 </r>
       <r>    -5.8832     0.6207     0.1259 </r>
       <r>    -5.8209     1.0039     0.1885 </r>
       <r>    -5.7586     0.5019     0.2197 </r>
       <r>    -5.6964     1.1435     0.2910 </r>
       <r>    -5.6341     1.2411     0.3682 </r>
       <r>    -5.5718     0.7536     0.4152 </r>
       <r>    -5.5095     1.1101     0.4843 </r>
       <r>    -5.4473     1.4069     0.5719 </r>
       <r>    -5.3850     1.3426     0.6555 </r>
       <r>    -5.3227     0.7809     0.7042 </r>
       <r>    -5.2604     1.4949     0.7973 </r>
       <r>    -5.1982     1.6832     0.9021 </r>
       <r>    -5.1359     1.2714     0.9813 </r>
       <r>    -5.0736     1.8982     1.0995 </r>
       <r>    -5.0114     1.4755     1.1914 </r>
       <r>    -4.9491     1.7724     1.3018 </r>
       <r>    -4.8868     1.0257     1.3657 </r>
       <r>    -4.8245     1.3002     1.4467 </r>
       <r>    -4.7623     2.6405     1.6111 </r>
       <r>    -4.7000     1.6939     1.7167 </r>
       <r>    -4.6377     2.2058     1.8541 </r>
       <r>    -4.5754     2.2310     1.9931 </r>
       <r>    -4.5132     1.6930     2.0986 </r>
       <r>    -4.4509     2.1721     2.2340 </r>
       <r>    -4.3886     2.0915     2.3644 </r>
       <r>    -4.3264     2.2200     2.5026 </r>
       <r>    -4.2641     1.2747     2.5820 </r>
       <r>    -4.2018     2.8276     2.7581 </r>
       <r>    -4.1395     2.7087     2.9268 </r>
       <r>    -4.0773     2.8903     3.1068 </r>
       <r>    -4.0150     3.0360     3.2959 </r>
       <r>    -3.9527     3.1759     3.4936 </r>
       <r>    -3.8904     2.4368     3.6454 </r>
       <r>    -3.8282     3.3513     3.8541 </r>
       <r>    -3.7659     3.1435     4.0499 </r>
       <r>    -3.7036     2.7782     4.2229 </r>
       <r>    -3.6414     3.7094     4.4539 </r>
       <r>    -3.5791     4.3600     4.7255 </r>
       <r>    -3.5168     3.5911     4.9492 </r>
       <r>    -3.4545     1.7429     5.0578 </r>
       <r>    -3.3923     3.0363     5.2469 </r>
       <r>    -3.3300     3.1920     5.4458 </r>
       <r>    -3.2677     4.6745     5.7369 </r>
       <r>    -3.2055     3.0287     5.9255 </r>
       <r>    -3.1432     2.2047     6.0629 </r>
       <r>    -3.0809     1.9503     6.1843 </r>
       <r>    -3.0186     2.4038     6.3340 </r>
       <r>    -2.9564     0.9177     6.3913 </r>
       <r>    -2.8941     2.0959     6.5218 </r>
       <r>    -2.8318     2.0551     6.6498 </r>
       <r>    -2.7695     3.7291     6.8821 </r>
       <r>    -2.7073     3.3774     7.0924 </r>
       <r>    -2.6450     2.0295     7.2188 </r>
       <r>    -2.5827     2.4186     7.3694 </r>
       <r>    -2.5205     1.4035     7.4568 </r>
       <r>    -2.4582     1.5107     7.5509 </r>
       <r>    -2.3959     0.7516     7.5977 </r>
       <r>    -2.3336     1.2925     7.6782 </r>
       <r>    -2.2714     0.7468     7.7247 </r>
       <r>    -2.2091     0.6030     7.7623 </r>
       <r>    -2.1468     0.8541     7.8155 </r>
       <r>    -2.0845     0.6881     7.8583 </r>
       <r>    -2.0223     1.2966     7.9391 </r>
       <r>    -1.9600     1.3296     8.0219 </r>
       <r>    -1.8977     0.8563     8.0752 </r>
       <r>    -1.8355     0.8058     8.1254 </r>
       <r>    -1.7732     0.6849     8.1680 </r>
       <r>    -1.7109     0.5276     8.2009 </r>
       <r>    -1.6486     0.5950     8.2380 </r>
       <r>    -1.5864     0.8026     8.2880 </r>
       <r>    -1.5241     0.7797     8.3365 </r>
       <r>    -1.4618     1.0784     8.4037 </r>
       <r>    -1.3995     0.7403     8.4499 </r>
       <r>    -1.3373     0.7804     8.4985 </r>
       <r>    -1.2750     1.8141     8.6115 </r>
       <r>    -1.2127     2.7124     8.7804 </r>
       <r>    -1.1505     7.4565     9.2448 </r>
       <r>    -1.0882     3.0442     9.4345 </r>
       <r>    -1.0259     5.2690     9.7626 </r>
       <r>    -0.9636     6.5250    10.1690 </r>
       <r>    -0.9014     4.3797    10.4418 </r>
       <r>    -0.8391     4.3765    10.7144 </r>
       <r>    -0.7768     2.9396    10.8977 </r>
       <r>    -0.7146     2.8459    11.0750 </r>
       <r>    -0.6523     2.9836    11.2608 </r>
       <r>    -0.5900     3.4623    11.4764 </r>
       <r>    -0.5277     3.8174    11.7141 </r>
       <r>    -0.4655     2.2739    11.8557 </r>
       <r>    -0.4032     2.4989    12.0114 </r>
       <r>    -0.3409     3.0243    12.1997 </r>
       <r>    -0.2786     2.1617    12.3344 </r>
       <r>    -0.2164     2.7856    12.5079 </r>
       <r>    -0.1541     1.5172    12.6024 </r>
       <r>    -0.0918     2.0095    12.7275 </r>
       <r>    -0.0296     1.8107    12.8403 </r>
       <r>     0.0327     1.2345    12.9172 </r>
       <r>     0.0950     1.7604    13.0269 </r>
       <r>     0.1573     2.4185    13.1775 </r>
       <r>     0.2195     2.0262    13.3037 </r>
       <r>     0.2818     1.0746    13.3706 </r>
       <r>     0.3441     1.2081    13.4459 </r>
       <r>     0.4064     0.8862    13.5011 </r>
       <r>     0.4686     2.0558    13.6291 </r>
       <r>     0.5309     1.3450    13.7129 </r>
       <r>     0.5932     1.0901    13.7808 </r>
       <r>     0.6554     1.3289    13.8636 </r>
       <r>     0.7177     2.5585    14.0229 </r>
       <r>     0.7800     1.1392    14.0939 </r>
       <r>     0.8423     0.9460    14.1528 </r>
       <r>     0.9045     1.0106    14.2158 </r>
       <r>     0.9668     0.5613    14.2507 </r>
       <r>     1.0291     1.4887    14.3435 </r>
       <r>     1.0913     1.1696    14.4163 </r>
       <r>     1.1536     0.5902    14.4530 </r>
       <r>     1.2159     0.4861    14.4833 </r>
       <r>     1.2782     1.0042    14.5459 </r>
       <r>     1.3404     1.0007    14.6082 </r>
       <r>     1.4027     1.5516    14.7048 </r>
       <r>     1.4650     1.6602    14.8082 </r>
       <r>     1.5273     2.8763    14.9874 </r>
       <r>     1.5895     2.8028    15.1620 </r>
       <r>     1.6518     6.0970    15.5417 </r>
       <r>     1.7141     5.0906    15.8588 </r>
       <r>     1.7763     4.9724    16.1685 </r>
       <r>     1.8386     4.4115    16.4433 </r>
       <r>     1.9009     3.3560    16.6524 </r>
       <r>     1.9632     3.8253    16.8906 </r>
       <r>     2.0254     3.2150    17.0909 </r>
       <r>     2.0877     6.4850    17.4947 </r>
       <r>     2.1500     4.3840    17.7678 </r>
       <r>     2.2123     3.1805    17.9659 </r>
       <r>     2.2745     3.3025    18.1716 </r>
       <r>     2.3368     3.7739    18.4066 </r>
       <r>     2.3991     4.2070    18.6686 </r>
       <r>     2.4613     5.6115    19.0181 </r>
       <r>     2.5236     5.0300    19.3314 </r>
       <r>     2.5859     4.5594    19.6155 </r>
       <r>     2.6482     3.3064    19.8215 </r>
       <r>     2.7104     4.1213    20.0782 </r>
       <r>     2.7727     6.6284    20.4910 </r>
       <r>     2.8350     5.3708    20.8255 </r>
       <r>     2.8973     3.6339    21.0518 </r>
       <r>     2.9595     6.7761    21.4739 </r>
       <r>     3.0218     6.3075    21.8667 </r>
       <r>     3.0841     6.1316    22.2487 </r>
       <r>     3.1463     6.2992    22.6411 </r>
       <r>     3.2086     5.0185    22.9538 </r>
       <r>     3.2709     5.8868    23.3205 </r>
       <r>     3.3332     5.4577    23.6605 </r>
       <r>     3.3954     5.7713    24.0200 </r>
       <r>     3.4577     6.1050    24.4002 </r>
       <r>     3.5200     8.1977    24.9107 </r>
       <r>     3.5822     3.3836    25.1215 </r>
       <r>     3.6445     3.8181    25.3593 </r>
       <r>     3.7068     4.4360    25.6357 </r>
       <r>     3.7691     8.2729    26.1509 </r>
       <r>     3.8313     5.2369    26.4771 </r>
       <r>     3.8936     4.7943    26.7756 </r>
       <r>     3.9559     5.7288    27.1324 </r>
       <r>     4.0182     4.0378    27.3840 </r>
       <r>     4.0804     4.7307    27.6787 </r>
       <r>     4.1427     3.0355    27.8678 </r>
       <r>     4.2050     6.3295    28.2620 </r>
       <r>     4.2672     4.8850    28.5663 </r>
       <r>     4.3295     5.3355    28.8986 </r>
       <r>     4.3918     5.1339    29.2183 </r>
       <r>     4.4541     5.5055    29.5612 </r>
       <r>     4.5163     3.1837    29.7596 </r>
       <r>     4.5786     3.1774    29.9574 </r>
       <r>     4.6409     3.8489    30.1972 </r>
       <r>     4.7032     3.8408    30.4364 </r>
       <r>     4.7654     3.8179    30.6741 </r>
       <r>     4.8277     2.2808    30.8162 </r>
       <r>     4.8900     1.7047    30.9223 </r>
       <r>     4.9522     2.0471    31.0499 </r>
       <r>     5.0145     2.6841    31.2170 </r>
       <r>     5.0768     1.4523    31.3075 </r>
       <r>     5.1391     2.3393    31.4533 </r>
       <r>     5.2013     2.2009    31.5903 </r>
       <r>     5.2636     0.6367    31.6300 </r>
       <r>     5.3259     0.3590    31.6524 </r>
       <r>     5.3882     1.0640    31.7187 </r>
       <r>     5.4504     1.5016    31.8122 </r>
       <r>     5.5127     1.2585    31.8905 </r>
       <r>     5.5750     0.9097    31.9472 </r>
       <r>     5.6372     0.1046    31.9537 </r>
       <r>     5.6995     0.4857    31.9840 </r>
       <r>     5.7618     0.2173    31.9975 </r>
       <r>     5.8241     0.0397    32.0000 </r>
       <r>     5.8863     0.0000    32.0000 </r>
       <r>     5.9486     0.0000    32.0000 </r>
       <r>     6.0109     0.0000    32.0000 </r>
       <r>     6.0731     0.0000    32.0000 </r>
       <r>     6.1354     0.0000    32.0000 </r>
       <r>     6.1977     0.0000    32.0000 </r>
       <r>     6.2600     0.0000    32.0000 </r>
       <r>     6.3222     0.0001    32.0000 </r>
       <r>     6.3845     0.3618    32.0225 </r>
       <r>     6.4468     0.2311    32.0370 </r>
       <r>     6.5091     0.4968    32.0679 </r>
       <r>     6.5713     0.3188    32.0878 </r>
       <r>     6.6336     1.2168    32.1635 </r>
       <r>     6.6959     2.8129    32.3387 </r>
       <r>     6.7581     0.5165    32.3710 </r>
       <r>     6.8204     1.5909    32.4700 </r>
       <r>     6.8827     1.3671    32.5552 </r>
       <r>     6.9450     2.1282    32.6877 </r>
       <r>     7.0072     1.9978    32.8121 </r>
       <r>     7.0695     1.9825    32.9356 </r>
       <r>     7.1318     2.6147    33.0984 </r>
       <r>     7.1941     2.7387    33.2690 </r>
       <r>     7.2563     0.9860    33.3305 </r>
       <r>     7.3186     2.2664    33.4716 </r>
       <r>     7.3809     3.4159    33.6844 </r>
       <r>     7.4431     4.7416    33.9798 </r>
       <r>     7.5054     3.1914    34.1786 </r>
       <r>     7.5677     4.3426    34.4490 </r>
       <r>     7.6300     3.4841    34.6660 </r>
       <r>     7.6922     3.2224    34.8667 </r>
       <r>     7.7545     4.0144    35.1167 </r>
       <r>     7.8168     5.9285    35.4860 </r>
       <r>     7.8791     5.8553    35.8508 </r>
       <r>     7.9413     4.9984    36.1621 </r>
       <r>     8.0036     6.6203    36.5744 </r>
       <r>     8.0659     5.5091    36.9175 </r>
       <r>     8.1281     7.3174    37.3732 </r>
       <r>     8.1904     5.1001    37.6908 </r>
       <r>     8.2527     6.5276    38.0974 </r>
       <r>     8.3150     5.8369    38.4609 </r>
       <r>     8.3772     4.6317    38.7493 </r>
       <r>     8.4395     6.5624    39.1580 </r>
       <r>     8.5018     4.6165    39.4455 </r>
       <r>     8.5640     5.6346    39.7965 </r>
       <r>     8.6263     4.4416    40.0732 </r>
       <r>     8.6886     3.7458    40.3065 </r>
       <r>     8.7509     4.1566    40.5653 </r>
       <r>     8.8131     4.7129    40.8588 </r>
       <r>     8.8754     5.2608    41.1865 </r>
       <r>     8.9377     4.0712    41.4402 </r>
       <r>     9.0000     7.5743    41.9119 </r>
       <r>     9.0622     7.9177    42.4051 </r>
       <r>     9.1245     7.3774    42.8646 </r>
       <r>     9.1868     6.9722    43.2990 </r>
       <r>     9.2490     8.9191    43.8545 </r>
       <r>     9.3113     7.0399    44.2929 </r>
       <r>     9.3736     5.5310    44.6375 </r>
       <r>     9.4359     4.6353    44.9262 </r>
       <r>     9.4981     6.4381    45.3271 </r>
       <r>     9.5604     6.5000    45.7320 </r>
       <r>     9.6227     7.2800    46.1854 </r>
       <r>     9.6850     3.6096    46.4104 </r>
       <r>     9.7472     4.0179    46.6607 </r>
       <r>     9.8095     3.7067    46.8916 </r>
       <r>     9.8718     2.8624    47.0698 </r>
       <r>     9.9340     3.0157    47.2577 </r>
       <r>     9.9963     2.1649    47.3925 </r>
       <r>    10.0586     1.4793    47.4846 </r>
       <r>    10.1209     1.3353    47.5678 </r>
       <r>    10.1831     1.0465    47.6330 </r>
       <r>    10.2454     0.8735    47.6874 </r>
       <r>    10.3077     1.5490    47.7838 </r>
       <r>    10.3700     0.3801    47.8075 </r>
       <r>    10.4322     0.9827    47.8687 </r>
       <r>    10.4945     0.7565    47.9158 </r>
       <r>    10.5568     0.5665    47.9511 </r>
       <r>    10.6190     0.5866    47.9877 </r>
       <r>    10.6813     0.0000    47.9877 </r>
       <r>    10.7436     0.0000    47.9877 </r>
       <r>    10.8059     0.0001    47.9877 </r>
       <r>    10.8681     0.1981    48.0000 </r>
       <r>    10.9304     0.0000    48.0000 </r>
       <r>    10.9927     0.0000    48.0000 </r>
       <r>    11.0549     0.0000    48.0000 </r>
       <r>    11.1172     0.0000    48.0000 </r>
       <r>    11.1795     0.0000    48.0000 </r>
       <r>    11.2418     0.0000    48.0000 </r>
       <r>    11.3040     0.0000    48.0000 </r>
       <r>    11.3663     0.0000    48.0000 </r>
       <r>    11.4286     0.0000    48.0000 </r>
       <r>    11.4909     0.0000    48.0000 </r>
       <r>    11.5531     0.0000    48.0000 </r>
       <r>    11.6154     0.0000    48.0000 </r>
       <r>    11.6777     0.0000    48.0000 </r>
      </set>
     </set>
    </array>
   </total>
  </dos>
 </calculation>
 <structure name="finalpos" >
  <crystal>
   <varray name="basis" >
    <v>      -0.00000000       0.00000000       5.44370237 </v>
    <v>      -5.44370237       0.00000000       0.00000000 </v>
    <v>      -2.72185119      -5.44370237       2.72185119 </v>
   </varray>
   <i name="volume">    161.31810740 </i>
   <varray name="rec_basis" >
    <v>       0.00000000       0.09184925       0.18369851 </v>
    <v>      -0.18369851       0.09184925      -0.00000000 </v>
    <v>       0.00000000      -0.18369851       0.00000000 </v>
   </varray>
  </crystal>
  <varray name="positions" >
   <v>       0.00000000       0.00000000       0.99850011 </v>
   <v>       0.75000000       0.25000000       0.50000000 </v>
   <v>       0.50000000       0.50000000       0.00000000 </v>
   <v>       0.25000000       0.75000000       0.50000000 </v>
   <v>       0.37500000       0.87500000       0.75000000 </v>
   <v>       0.12500000       0.12500000       0.25000000 </v>
   <v>       0.87500000       0.37500000       0.75000000 </v>
   <v>       0.62500000       0.62500000       0.25000000 </v>
  </varray>
 </structure>
</modeling>
