phonopy:
  version: "2.34.0"
  frequency_unit_conversion_factor: 15.633302
  symmetry_tolerance: 1.00000e-05
  configuration:
    force_sets: "READ"
    force_constants: "WRITE"
    fc_format: "HDF5"
    fc_symmetry: ".FALSE."
    include_fc: ".TRUE."
    primitive_axes: "1 0 0 0 1 0 0 0 1"
    dim: "1 1 0 1 -1 1 2 0 -1"

physical_unit:
  atomic_mass: "AMU"
  length: "angstrom"
  force: "eV/angstrom"
  force_constants: "eV/angstrom^2"

space_group:
  type: "Pm-3m"
  number: 221
  Hall_symbol: "-P 4 2 3"

primitive_matrix:
- [  1.000000000000000,  0.000000000000000,  0.000000000000000 ]
- [  0.000000000000000,  1.000000000000000,  0.000000000000000 ]
- [  0.000000000000000,  0.000000000000000,  1.000000000000000 ]

supercell_matrix:
- [   1,   1,   0 ]
- [   1,  -1,   1 ]
- [   2,   0,  -1 ]

primitive_cell:
  lattice:
  - [     4.143698340000000,     0.000000000000000,     0.000000000000000 ] # a
  - [     0.000000000000001,     4.143698340000000,     0.000000000000000 ] # b
  - [     0.000000000000000,     0.000000000000000,     4.143698340000000 ] # c
  points:
  - symbol: Cs # 1
    coordinates: [  0.000000000000000,  0.000000000000000,  0.000000000000000 ]
    mass: 132.905452
  - symbol: Cl # 2
    coordinates: [  0.500000000000000,  0.500000000000000,  0.500000000000000 ]
    mass: 35.453000
  reciprocal_lattice: # without 2pi
  - [     0.241330308808146,    -0.000000000000000,    -0.000000000000000 ] # a*
  - [     0.000000000000000,     0.241330308808146,     0.000000000000000 ] # b*
  - [    -0.000000000000000,    -0.000000000000000,     0.241330308808146 ] # c*

unit_cell:
  lattice:
  - [     4.143698340000000,     0.000000000000000,     0.000000000000000 ] # a
  - [     0.000000000000001,     4.143698340000000,     0.000000000000000 ] # b
  - [     0.000000000000000,     0.000000000000000,     4.143698340000000 ] # c
  points:
  - symbol: Cs # 1
    coordinates: [  0.000000000000000,  0.000000000000000,  0.000000000000000 ]
    mass: 132.905452
    reduced_to: 1
  - symbol: Cl # 2
    coordinates: [  0.500000000000000,  0.500000000000000,  0.500000000000000 ]
    mass: 35.453000
    reduced_to: 2

supercell:
  lattice:
  - [     4.143698340000001,     4.143698340000000,     8.287396680000001 ] # a
  - [     4.143698339999999,    -4.143698340000000,     0.000000000000000 ] # b
  - [     0.000000000000001,     4.143698340000000,    -4.143698339999999 ] # c
  points:
  - symbol: Cs # 1
    coordinates: [  0.000000000000000,  0.000000000000000,  0.000000000000000 ]
    mass: 132.905452
    reduced_to: 1
  - symbol: Cs # 2
    coordinates: [  0.250000000000000,  0.750000000000000,  0.500000000000000 ]
    mass: 132.905452
    reduced_to: 1
  - symbol: Cs # 3
    coordinates: [  0.500000000000000,  0.500000000000000,  0.000000000000000 ]
    mass: 132.905452
    reduced_to: 1
  - symbol: Cs # 4
    coordinates: [  0.750000000000000,  0.250000000000000,  0.500000000000000 ]
    mass: 132.905452
    reduced_to: 1
  - symbol: Cl # 5
    coordinates: [  0.375000000000000,  0.125000000000000,  0.250000000000000 ]
    mass: 35.453000
    reduced_to: 5
  - symbol: Cl # 6
    coordinates: [  0.625000000000000,  0.875000000000000,  0.750000000000000 ]
    mass: 35.453000
    reduced_to: 5
  - symbol: Cl # 7
    coordinates: [  0.875000000000000,  0.625000000000000,  0.250000000000000 ]
    mass: 35.453000
    reduced_to: 5
  - symbol: Cl # 8
    coordinates: [  0.125000000000000,  0.375000000000000,  0.750000000000000 ]
    mass: 35.453000
    reduced_to: 5

force_constants:
  format: "compact"
  shape: [ 2, 8 ]
  elements:
  - # (1, 1)
    - [     1.409031007444996,     0.106825921917397,     0.106825921917397 ]
    - [     0.106825921917397,     1.409031007444997,     0.106825921917398 ]
    - [     0.106825921917397,     0.106825921917397,     1.409031007444996 ]
  - # (1, 2)
    - [    -0.255901255290734,    -0.000503982514579,    -0.000503982514579 ]
    - [    -0.000503982514579,    -0.255901255290734,    -0.000503982514579 ]
    - [    -0.000503982514579,    -0.000503982514579,    -0.255901255290734 ]
  - # (1, 3)
    - [    -0.113116211576856,    -0.103678327597912,    -0.103678327597912 ]
    - [    -0.103678327597913,    -0.113116211576856,    -0.103678327597912 ]
    - [    -0.103678327597912,    -0.103678327597912,    -0.113116211576856 ]
  - # (1, 4)
    - [    -0.255901255290734,    -0.000503982514579,    -0.000503982514579 ]
    - [    -0.000503982514579,    -0.255901255290734,    -0.000503982514579 ]
    - [    -0.000503982514579,    -0.000503982514579,    -0.255901255290734 ]
  - # (1, 5)
    - [    -0.040710213338838,    -0.004504305450761,    -0.004504305450761 ]
    - [    -0.004504305450761,    -0.040710213338838,    -0.004504305450761 ]
    - [    -0.004504305450761,    -0.004504305450761,    -0.040710213338838 ]
  - # (1, 6)
    - [    -0.040710213338838,    -0.004504305450761,    -0.004504305450761 ]
    - [    -0.004504305450761,    -0.040710213338838,    -0.004504305450761 ]
    - [    -0.004504305450761,    -0.004504305450761,    -0.040710213338838 ]
  - # (1, 7)
    - [    -0.351345010745844,     0.003434184619380,     0.003434184619380 ]
    - [     0.003434184619380,    -0.351345010745844,     0.003434184619380 ]
    - [     0.003434184619380,     0.003434184619380,    -0.351345010745844 ]
  - # (1, 8)
    - [    -0.351345010745844,     0.003434184619380,     0.003434184619380 ]
    - [     0.003434184619380,    -0.351345010745844,     0.003434184619380 ]
    - [     0.003434184619380,     0.003434184619380,    -0.351345010745844 ]
  - # (2, 1)
    - [    -0.042234408331285,    -0.004274665787375,    -0.004274665787375 ]
    - [    -0.004274665787375,    -0.042234408331285,    -0.004274665787375 ]
    - [    -0.004274665787375,    -0.004274665787375,    -0.042234408331285 ]
  - # (2, 2)
    - [    -0.353464125559569,     0.003245267722968,     0.003245267722968 ]
    - [     0.003245267722968,    -0.353464125559569,     0.003245267722968 ]
    - [     0.003245267722968,     0.003245267722968,    -0.353464125559569 ]
  - # (2, 3)
    - [    -0.353464125559569,     0.003245267722968,     0.003245267722968 ]
    - [     0.003245267722968,    -0.353464125559569,     0.003245267722968 ]
    - [     0.003245267722968,     0.003245267722968,    -0.353464125559569 ]
  - # (2, 4)
    - [    -0.042234408331285,    -0.004274665787375,    -0.004274665787375 ]
    - [    -0.004274665787375,    -0.042234408331285,    -0.004274665787375 ]
    - [    -0.004274665787375,    -0.004274665787375,    -0.042234408331285 ]
  - # (2, 5)
    - [     1.366161262711676,     0.091973440862031,     0.091973440862031 ]
    - [     0.091973440862030,     1.366161262711676,     0.091973440862030 ]
    - [     0.091973440862031,     0.091973440862031,     1.366161262711677 ]
  - # (2, 6)
    - [    -0.240124398043686,    -0.000514086659768,    -0.000514086659768 ]
    - [    -0.000514086659768,    -0.240124398043686,    -0.000514086659768 ]
    - [    -0.000514086659768,    -0.000514086659768,    -0.240124398043686 ]
  - # (2, 7)
    - [    -0.094516623587467,    -0.088885246668809,    -0.088885246668809 ]
    - [    -0.088885246668809,    -0.094516623587467,    -0.088885246668809 ]
    - [    -0.088885246668809,    -0.088885246668809,    -0.094516623587468 ]
  - # (2, 8)
    - [    -0.240124398043686,    -0.000514086659768,    -0.000514086659768 ]
    - [    -0.000514086659768,    -0.240124398043686,    -0.000514086659768 ]
    - [    -0.000514086659768,    -0.000514086659768,    -0.240124398043686 ]