<?xml version="1.0" encoding="ISO-8859-1"?>
<modeling>
 <generator>
  <i name="program" type="string">vasp </i>
  <i name="version" type="string">6.4.3  </i>
  <i name="subversion" type="string">19Mar24 (build Jun 20 2024 15:56:09) complex                          parallel </i>
  <i name="platform" type="string">LinuxNV_CrayMPICH </i>
  <i name="date" type="string">2025 01 07 </i>
  <i name="time" type="string">18:41:51 </i>
 </generator>
 <incar>
  <i type="string" name="PREC">Accurate</i>
  <i type="int" name="IBRION">    -1</i>
  <i name="EDIFF">      0.00000001</i>
  <i type="int" name="NSW">     0</i>
  <i name="ENCUT">    500.00000000</i>
  <i type="logical" name="LREAL"> F  </i>
  <i type="int" name="ISMEAR">     0</i>
  <i name="SIGMA">      0.01000000</i>
  <i type="logical" name="LWAVE"> F  </i>
  <i type="logical" name="LCHARG"> F  </i>
 </incar>
 <primitive_cell>
  <structure name="primitive_cell" >
   <crystal>
    <varray name="basis" >
     <v>       4.14369834       4.14369834       0.00000000 </v>
     <v>       4.14369834      -4.14369834       0.00000000 </v>
     <v>       0.00000000       4.14369834      -8.28739668 </v>
    </varray>
    <i name="volume">    284.59311253 </i>
    <varray name="rec_basis" >
     <v>       0.12066515       0.12066515       0.06033258 </v>
     <v>       0.12066515      -0.12066515      -0.06033258 </v>
     <v>       0.00000000       0.00000000      -0.12066515 </v>
    </varray>
   </crystal>
   <varray name="positions" >
    <v>       1.00000000       0.00000000       0.00107926 </v>
    <v>       0.50000000       0.50000000       0.00000000 </v>
    <v>       0.25000000       0.75000000       0.50000000 </v>
    <v>       0.75000000       0.25000000       0.50000000 </v>
    <v>       0.62500000       0.87500000       0.75000000 </v>
    <v>       0.12500000       0.37500000       0.75000000 </v>
    <v>       0.87500000       0.62500000       0.25000000 </v>
    <v>       0.37500000       0.12500000       0.25000000 </v>
   </varray>
  </structure>
  <varray name="primitive_index" >
   <v type="int" >        1 </v>
   <v type="int" >        2 </v>
   <v type="int" >        3 </v>
   <v type="int" >        4 </v>
   <v type="int" >        5 </v>
   <v type="int" >        6 </v>
   <v type="int" >        7 </v>
   <v type="int" >        8 </v>
  </varray>
 </primitive_cell>
 <kpoints>
  <generation param="Gamma">
   <v type="int" name="divisions">       8        8        5 </v>
   <v name="usershift">      0.00000000       0.00000000       0.00000000 </v>
   <v name="genvec1">      0.12500000      -0.00000000      -0.00000000 </v>
   <v name="genvec2">     -0.00000000       0.12500000       0.00000000 </v>
   <v name="genvec3">      0.00000000       0.00000000       0.20000000 </v>
   <v name="shift">      0.00000000       0.00000000       0.00000000 </v>
  </generation>
  <varray name="kpointlist" >
   <v>       0.00000000       0.00000000       0.00000000 </v>
   <v>       0.12500000       0.00000000       0.00000000 </v>
   <v>       0.25000000       0.00000000       0.00000000 </v>
   <v>       0.37500000       0.00000000       0.00000000 </v>
   <v>       0.50000000       0.00000000       0.00000000 </v>
   <v>       0.12500000       0.12500000       0.00000000 </v>
   <v>       0.25000000       0.12500000       0.00000000 </v>
   <v>       0.37500000       0.12500000       0.00000000 </v>
   <v>       0.50000000       0.12500000       0.00000000 </v>
   <v>      -0.37500000       0.12500000       0.00000000 </v>
   <v>      -0.25000000       0.12500000       0.00000000 </v>
   <v>      -0.12500000       0.12500000       0.00000000 </v>
   <v>       0.25000000       0.25000000       0.00000000 </v>
   <v>       0.37500000       0.25000000       0.00000000 </v>
   <v>       0.50000000       0.25000000       0.00000000 </v>
   <v>      -0.37500000       0.25000000       0.00000000 </v>
   <v>      -0.25000000       0.25000000       0.00000000 </v>
   <v>       0.37500000       0.37500000       0.00000000 </v>
   <v>       0.50000000       0.37500000       0.00000000 </v>
   <v>      -0.37500000       0.37500000       0.00000000 </v>
   <v>       0.50000000       0.50000000       0.00000000 </v>
   <v>       0.00000000       0.00000000       0.20000000 </v>
   <v>       0.12500000       0.00000000       0.20000000 </v>
   <v>       0.25000000       0.00000000       0.20000000 </v>
   <v>       0.37500000       0.00000000       0.20000000 </v>
   <v>       0.50000000       0.00000000       0.20000000 </v>
   <v>      -0.37500000       0.00000000       0.20000000 </v>
   <v>      -0.25000000       0.00000000       0.20000000 </v>
   <v>      -0.12500000       0.00000000       0.20000000 </v>
   <v>       0.12500000       0.12500000       0.20000000 </v>
   <v>       0.25000000       0.12500000       0.20000000 </v>
   <v>       0.37500000       0.12500000       0.20000000 </v>
   <v>       0.50000000       0.12500000       0.20000000 </v>
   <v>      -0.37500000       0.12500000       0.20000000 </v>
   <v>      -0.25000000       0.12500000       0.20000000 </v>
   <v>      -0.12500000       0.12500000       0.20000000 </v>
   <v>       0.12500000       0.25000000       0.20000000 </v>
   <v>       0.25000000       0.25000000       0.20000000 </v>
   <v>       0.37500000       0.25000000       0.20000000 </v>
   <v>       0.50000000       0.25000000       0.20000000 </v>
   <v>      -0.37500000       0.25000000       0.20000000 </v>
   <v>      -0.25000000       0.25000000       0.20000000 </v>
   <v>       0.12500000       0.37500000       0.20000000 </v>
   <v>       0.25000000       0.37500000       0.20000000 </v>
   <v>       0.37500000       0.37500000       0.20000000 </v>
   <v>       0.50000000       0.37500000       0.20000000 </v>
   <v>      -0.37500000       0.37500000       0.20000000 </v>
   <v>       0.12500000       0.50000000       0.20000000 </v>
   <v>       0.25000000       0.50000000       0.20000000 </v>
   <v>       0.37500000       0.50000000       0.20000000 </v>
   <v>       0.50000000       0.50000000       0.20000000 </v>
   <v>       0.12500000      -0.37500000       0.20000000 </v>
   <v>       0.25000000      -0.37500000       0.20000000 </v>
   <v>       0.37500000      -0.37500000       0.20000000 </v>
   <v>       0.12500000      -0.25000000       0.20000000 </v>
   <v>       0.25000000      -0.25000000       0.20000000 </v>
   <v>       0.12500000      -0.12500000       0.20000000 </v>
   <v>       0.00000000       0.00000000       0.40000000 </v>
   <v>       0.12500000       0.00000000       0.40000000 </v>
   <v>       0.25000000       0.00000000       0.40000000 </v>
   <v>       0.37500000       0.00000000       0.40000000 </v>
   <v>       0.50000000       0.00000000       0.40000000 </v>
   <v>      -0.37500000       0.00000000       0.40000000 </v>
   <v>      -0.25000000       0.00000000       0.40000000 </v>
   <v>      -0.12500000       0.00000000       0.40000000 </v>
   <v>       0.12500000       0.12500000       0.40000000 </v>
   <v>       0.25000000       0.12500000       0.40000000 </v>
   <v>       0.37500000       0.12500000       0.40000000 </v>
   <v>       0.50000000       0.12500000       0.40000000 </v>
   <v>      -0.37500000       0.12500000       0.40000000 </v>
   <v>      -0.25000000       0.12500000       0.40000000 </v>
   <v>      -0.12500000       0.12500000       0.40000000 </v>
   <v>       0.12500000       0.25000000       0.40000000 </v>
   <v>       0.25000000       0.25000000       0.40000000 </v>
   <v>       0.37500000       0.25000000       0.40000000 </v>
   <v>       0.50000000       0.25000000       0.40000000 </v>
   <v>      -0.37500000       0.25000000       0.40000000 </v>
   <v>      -0.25000000       0.25000000       0.40000000 </v>
   <v>       0.12500000       0.37500000       0.40000000 </v>
   <v>       0.25000000       0.37500000       0.40000000 </v>
   <v>       0.37500000       0.37500000       0.40000000 </v>
   <v>       0.50000000       0.37500000       0.40000000 </v>
   <v>      -0.37500000       0.37500000       0.40000000 </v>
   <v>       0.12500000       0.50000000       0.40000000 </v>
   <v>       0.25000000       0.50000000       0.40000000 </v>
   <v>       0.37500000       0.50000000       0.40000000 </v>
   <v>       0.50000000       0.50000000       0.40000000 </v>
   <v>       0.12500000      -0.37500000       0.40000000 </v>
   <v>       0.25000000      -0.37500000       0.40000000 </v>
   <v>       0.37500000      -0.37500000       0.40000000 </v>
   <v>       0.12500000      -0.25000000       0.40000000 </v>
   <v>       0.25000000      -0.25000000       0.40000000 </v>
   <v>       0.12500000      -0.12500000       0.40000000 </v>
  </varray>
  <varray name="weights" >
   <v>       0.00312500 </v>
   <v>       0.01250000 </v>
   <v>       0.01250000 </v>
   <v>       0.01250000 </v>
   <v>       0.00625000 </v>
   <v>       0.00625000 </v>
   <v>       0.01250000 </v>
   <v>       0.01250000 </v>
   <v>       0.01250000 </v>
   <v>       0.01250000 </v>
   <v>       0.01250000 </v>
   <v>       0.00625000 </v>
   <v>       0.00625000 </v>
   <v>       0.01250000 </v>
   <v>       0.01250000 </v>
   <v>       0.01250000 </v>
   <v>       0.00625000 </v>
   <v>       0.00625000 </v>
   <v>       0.01250000 </v>
   <v>       0.00625000 </v>
   <v>       0.00312500 </v>
   <v>       0.00625000 </v>
   <v>       0.01250000 </v>
   <v>       0.01250000 </v>
   <v>       0.01250000 </v>
   <v>       0.01250000 </v>
   <v>       0.01250000 </v>
   <v>       0.01250000 </v>
   <v>       0.01250000 </v>
   <v>       0.01250000 </v>
   <v>       0.01250000 </v>
   <v>       0.01250000 </v>
   <v>       0.01250000 </v>
   <v>       0.01250000 </v>
   <v>       0.01250000 </v>
   <v>       0.00625000 </v>
   <v>       0.01250000 </v>
   <v>       0.01250000 </v>
   <v>       0.01250000 </v>
   <v>       0.01250000 </v>
   <v>       0.01250000 </v>
   <v>       0.00625000 </v>
   <v>       0.01250000 </v>
   <v>       0.01250000 </v>
   <v>       0.01250000 </v>
   <v>       0.01250000 </v>
   <v>       0.00625000 </v>
   <v>       0.01250000 </v>
   <v>       0.01250000 </v>
   <v>       0.01250000 </v>
   <v>       0.00625000 </v>
   <v>       0.01250000 </v>
   <v>       0.01250000 </v>
   <v>       0.00625000 </v>
   <v>       0.01250000 </v>
   <v>       0.00625000 </v>
   <v>       0.00625000 </v>
   <v>       0.00625000 </v>
   <v>       0.01250000 </v>
   <v>       0.01250000 </v>
   <v>       0.01250000 </v>
   <v>       0.01250000 </v>
   <v>       0.01250000 </v>
   <v>       0.01250000 </v>
   <v>       0.01250000 </v>
   <v>       0.01250000 </v>
   <v>       0.01250000 </v>
   <v>       0.01250000 </v>
   <v>       0.01250000 </v>
   <v>       0.01250000 </v>
   <v>       0.01250000 </v>
   <v>       0.00625000 </v>
   <v>       0.01250000 </v>
   <v>       0.01250000 </v>
   <v>       0.01250000 </v>
   <v>       0.01250000 </v>
   <v>       0.01250000 </v>
   <v>       0.00625000 </v>
   <v>       0.01250000 </v>
   <v>       0.01250000 </v>
   <v>       0.01250000 </v>
   <v>       0.01250000 </v>
   <v>       0.00625000 </v>
   <v>       0.01250000 </v>
   <v>       0.01250000 </v>
   <v>       0.01250000 </v>
   <v>       0.00625000 </v>
   <v>       0.01250000 </v>
   <v>       0.01250000 </v>
   <v>       0.00625000 </v>
   <v>       0.01250000 </v>
   <v>       0.00625000 </v>
   <v>       0.00625000 </v>
  </varray>
 </kpoints>
 <parameters>
  <separator name="general" >
   <i type="string" name="SYSTEM">unknown system</i>
   <i type="logical" name="LCOMPAT"> F  </i>
  </separator>
  <separator name="electronic" >
   <i type="string" name="PREC">accura</i>
   <i name="ENMAX">    500.00000000</i>
   <i name="ENAUG">    407.93300000</i>
   <i name="EDIFF">      0.00000001</i>
   <i type="int" name="IALGO">    38</i>
   <i type="int" name="IWAVPR">    10</i>
   <i type="int" name="NBANDS">    40</i>
   <i type="int" name="NBANDSLOW">    -1</i>
   <i type="int" name="NBANDSHIGH">    -1</i>
   <i name="NELECT">     64.00000000</i>
   <i type="int" name="TURBO">     0</i>
   <i type="int" name="IRESTART">     0</i>
   <i type="int" name="NREBOOT">     0</i>
   <i type="int" name="NMIN">     0</i>
   <i name="EREF">      0.00000000</i>
   <separator name="electronic smearing" >
    <i type="int" name="ISMEAR">     0</i>
    <i name="SIGMA">      0.01000000</i>
    <i name="KSPACING">      0.50000000</i>
    <i type="logical" name="KGAMMA"> T  </i>
    <i type="logical" name="KBLOWUP"> F  </i>
   </separator>
   <separator name="electronic projectors" >
    <i type="logical" name="LREAL"> F  </i>
    <v name="ROPT">      0.00000000      0.00000000</v>
    <i type="int" name="LMAXPAW">  -100</i>
    <i type="int" name="LMAXMIX">     2</i>
    <i type="logical" name="NLSPLINE"> F  </i>
   </separator>
   <separator name="electronic startup" >
    <i type="int" name="ISTART">     0</i>
    <i type="int" name="ICHARG">     2</i>
    <i type="int" name="INIWAV">     1</i>
   </separator>
   <separator name="electronic spin" >
    <i type="int" name="ISPIN">     1</i>
    <i type="logical" name="LNONCOLLINEAR"> F  </i>
    <v name="MAGMOM">      1.00000000      1.00000000      1.00000000      1.00000000      1.00000000      1.00000000      1.00000000      1.00000000</v>
    <i name="NUPDOWN">     -1.00000000</i>
    <i type="logical" name="LSORBIT"> F  </i>
    <v name="SAXIS">      0.00000000      0.00000000      1.00000000</v>
    <i type="logical" name="LSPIRAL"> F  </i>
    <v name="QSPIRAL">      0.00000000      0.00000000      0.00000000</v>
    <i type="logical" name="LZEROZ"> F  </i>
   </separator>
   <separator name="electronic exchange-correlation" >
    <i type="logical" name="LASPH"> F  </i>
   </separator>
   <separator name="electronic convergence" >
    <i type="int" name="NELM">    60</i>
    <i type="int" name="NELMDL">    -5</i>
    <i type="int" name="NELMIN">     2</i>
    <i name="ENINI">    500.00000000</i>
    <separator name="electronic convergence detail" >
     <i type="logical" name="LDIAG"> T  </i>
     <i type="logical" name="LSUBROT"> F  </i>
     <i name="WEIMIN">      0.00000000</i>
     <i name="EBREAK">      0.00000000</i>
     <i name="DEPER">      0.30000000</i>
     <i type="int" name="NRMM">     4</i>
     <i name="TIME">      0.40000000</i>
    </separator>
   </separator>
   <separator name="electronic mixer" >
    <i name="AMIX">      0.40000000</i>
    <i name="BMIX">      1.00000000</i>
    <i name="AMIN">      0.10000000</i>
    <i name="AMIX_MAG">      1.60000000</i>
    <i name="BMIX_MAG">      1.00000000</i>
    <separator name="electronic mixer details" >
     <i type="int" name="IMIX">     4</i>
     <i type="logical" name="MIXFIRST"> F  </i>
     <i type="int" name="MAXMIX">   -45</i>
     <i name="WC">    100.00000000</i>
     <i type="int" name="INIMIX">     1</i>
     <i type="int" name="MIXPRE">     1</i>
     <i type="int" name="MREMOVE">     5</i>
    </separator>
   </separator>
   <separator name="electronic dipolcorrection" >
    <i type="logical" name="LDIPOL"> F  </i>
    <i type="logical" name="LMONO"> F  </i>
    <i type="int" name="IDIPOL">     0</i>
    <i name="EPSILON">      1.00000000</i>
    <v name="DIPOL">   -100.00000000   -100.00000000   -100.00000000</v>
    <i name="EFIELD">      0.00000000</i>
    <i type="logical" name="LVACPOTAV"> F  </i>
   </separator>
  </separator>
  <separator name="grids" >
   <i type="int" name="NGX">    48</i>
   <i type="int" name="NGY">    48</i>
   <i type="int" name="NGZ">    70</i>
   <i type="int" name="NGXF">    96</i>
   <i type="int" name="NGYF">    96</i>
   <i type="int" name="NGZF">   140</i>
   <i type="logical" name="ADDGRID"> F  </i>
  </separator>
  <separator name="ionic" >
   <i type="int" name="NSW">     0</i>
   <i type="int" name="IBRION">    -1</i>
   <i type="int" name="MDALGO">     0</i>
   <i type="int" name="ISIF">     2</i>
   <i name="PSTRESS">      0.00000000</i>
   <i name="EDIFFG">      0.00000010</i>
   <i type="int" name="NFREE">     0</i>
   <i name="POTIM">      0.50000000</i>
   <i name="SMASS">     -3.00000000</i>
   <i name="SCALEE">      1.00000000</i>
  </separator>
  <separator name="ionic md" >
   <i name="TEBEG">      0.00010000</i>
   <i name="TEEND">      0.00010000</i>
   <i type="int" name="NBLOCK">     1</i>
   <i type="int" name="KBLOCK">     1</i>
   <i type="int" name="NPACO">   256</i>
   <i name="APACO">     10.00000000</i>
  </separator>
  <separator name="symmetry" >
   <i type="int" name="ISYM">     2</i>
   <i name="SYMPREC">      0.00001000</i>
  </separator>
  <separator name="dos" >
   <i type="int" name="LORBIT">     0</i>
   <v name="RWIGS">     -1.00000000     -1.00000000</v>
   <i type="int" name="NEDOS">   301</i>
   <i name="EMIN">     10.00000000</i>
   <i name="EMAX">    -10.00000000</i>
   <i name="EFERMI">      0.00000000</i>
  </separator>
  <separator name="writing" >
   <i type="int" name="NWRITE">     2</i>
   <i type="logical" name="LWAVE"> F  </i>
   <i type="logical" name="LDOWNSAMPLE"> F  </i>
   <i type="logical" name="LCHARG"> F  </i>
   <i type="logical" name="LPARD"> F  </i>
   <i type="logical" name="LVTOT"> F  </i>
   <i type="logical" name="LVHAR"> F  </i>
   <i type="logical" name="LELF"> F  </i>
   <i type="logical" name="LOPTICS"> F  </i>
   <v name="STM">      0.00000000      0.00000000      0.00000000      0.00000000      0.00000000      0.00000000      0.00000000</v>
  </separator>
  <separator name="performance" >
   <i type="int" name="NPAR">     8</i>
   <i type="int" name="NSIM">     4</i>
   <i type="int" name="NBLK">    -1</i>
   <i type="logical" name="LPLANE"> T  </i>
   <i type="logical" name="LSCALAPACK"> T  </i>
   <i type="logical" name="LSCAAWARE"> F  </i>
   <i type="logical" name="LSCALU"> F  </i>
   <i type="logical" name="LASYNC"> F  </i>
   <i type="logical" name="LORBITALREAL"> F  </i>
  </separator>
  <separator name="miscellaneous" >
   <i type="int" name="IDIOT">     3</i>
   <i type="int" name="PHON_NSTRUCT">    -1</i>
   <i type="logical" name="LMUSIC"> F  </i>
   <v name="POMASS">    132.90000000     35.45300000</v>
   <v name="DARWINR">      0.00000000      0.00000000</v>
   <v name="DARWINV">      1.00000000      1.00000000</v>
   <i type="logical" name="LCORR"> T  </i>
  </separator>
  <i type="logical" name="GGA_COMPAT"> T  </i>
  <i type="logical" name="LBERRY"> F  </i>
  <i type="int" name="ICORELEVEL">     0</i>
  <i type="logical" name="LDAU"> F  </i>
  <i type="int" name="I_CONSTRAINED_M">     0</i>
  <separator name="electronic exchange-correlation" >
   <i type="string" name="GGA    ">PE</i>
   <i type="string" name="XC_C">1</i>
   <i type="int" name="VOSKOWN">     0</i>
   <i type="logical" name="LHFCALC"> F  </i>
   <i type="string" name="PRECFOCK"></i>
   <i type="logical" name="LSYMGRAD"> F  </i>
   <i type="logical" name="LHFONE"> F  </i>
   <i type="logical" name="LRHFCALC"> F  </i>
   <i type="logical" name="LTHOMAS"> F  </i>
   <i type="logical" name="LMODELHF"> F  </i>
   <i type="logical" name="LFOCKACE"> F  </i>
   <i name="ENCUT4O">     -1.00000000</i>
   <i type="int" name="EXXOEP">     0</i>
   <i type="int" name="FOURORBIT">     0</i>
   <i name="AEXX">      0.00000000</i>
   <i name="HFALPHA">      0.00000000</i>
   <i name="MCALPHA">      0.00000000</i>
   <i name="ALDAX">      1.00000000</i>
   <i name="AGGAX">      1.00000000</i>
   <i name="AMGGAX">      1.00000000</i>
   <i name="ALDAC">      1.00000000</i>
   <i name="AGGAC">      1.00000000</i>
   <i name="AMGGAC">      1.00000000</i>
   <i type="int" name="NKREDX">     1</i>
   <i type="int" name="NKREDY">     1</i>
   <i type="int" name="NKREDZ">     1</i>
   <i type="logical" name="SHIFTRED"> F  </i>
   <i type="logical" name="ODDONLY"> F  </i>
   <i type="logical" name="EVENONLY"> F  </i>
   <i type="int" name="LMAXFOCK">     0</i>
   <i type="int" name="NMAXFOCKAE">     0</i>
   <i type="logical" name="LFOCKAEDFT"> F  </i>
   <i name="HFSCREEN">      0.00000000</i>
   <i name="HFSCREENC">      0.00000000</i>
   <i type="int" name="NBANDSGWLOW">     0</i>
  </separator>
  <separator name="vdW DFT" >
   <i type="logical" name="LUSE_VDW"> F  </i>
   <i type="int" name="IVDW_NL">    -1</i>
   <i type="logical" name="LSPIN_VDW"> F  </i>
   <i name="ZAB_VDW">     -0.84910000</i>
   <i name="GAMMA_VDW">      1.39626340</i>
   <i name="ALPHA_VDW">      0.00000000</i>
   <i name="PARAM1">      0.12340000</i>
   <i name="PARAM2">      1.00000000</i>
   <i name="BPARAM">      6.30000000</i>
   <i name="CPARAM">      0.00930000</i>
  </separator>
  <separator name="model GW" >
   <i type="int" name="MODEL_GW">     0</i>
   <i name="MODEL_EPS0">     21.34448344</i>
   <i name="MODEL_ALPHA">      1.00000000</i>
  </separator>
  <separator name="linear response parameters" >
   <i type="logical" name="LEPSILON"> F  </i>
   <i type="logical" name="LRPA"> F  </i>
   <i type="logical" name="LNABLA"> F  </i>
   <i type="logical" name="LVEL"> F  </i>
   <i name="CSHIFT">      0.10000000</i>
   <i name="OMEGAMAX">     -1.00000000</i>
   <i name="DEG_THRESHOLD">      0.00200000</i>
   <i name="RTIME">     -0.10000000</i>
   <i name="WPLASMAI">      0.00000000</i>
   <v name="DFIELD">      0.00000000      0.00000000      0.00000000</v>
   <v name="WPLASMA">      0.00000000      0.00000000      0.00000000      0.00000000      0.00000000      0.00000000      0.00000000      0.00000000      0.00000000</v>
  </separator>
  <separator name="orbital magnetization" >
   <i type="logical" name="NUCIND"> F  </i>
   <v name="MAGPOS">      0.00000000      0.00000000      0.00000000</v>
   <i type="logical" name="LNICSALL"> T  </i>
   <i type="logical" name="ORBITALMAG"> F  </i>
   <i type="logical" name="LMAGBLOCH"> F  </i>
   <i type="logical" name="LCHIMAG"> F  </i>
   <i type="logical" name="LGAUGE"> T  </i>
   <i type="int" name="MAGATOM">     0</i>
   <v name="MAGDIPOL">      0.00000000      0.00000000      0.00000000</v>
   <v name="AVECCONST">      0.00000000      0.00000000      0.00000000</v>
  </separator>
  <separator name="response functions" >
   <i type="logical" name="LALL_IN_ONE"> F  </i>
   <i type="int" name="IALL_IN_ONE">    -1</i>
   <i type="int" name="NBANDS_WAVE">    -1</i>
   <i type="logical" name="LFINITE_TEMPERATURE"> F  </i>
   <i type="logical" name="LADDER"> F  </i>
   <i type="logical" name="LRPAFORCE"> F  </i>
   <i type="logical" name="LFXC"> F  </i>
   <i type="logical" name="LHARTREE"> T  </i>
   <i type="int" name="IBSE">     0</i>
   <v type="int" name="KPOINT">    -1     0     0     0</v>
   <i type="logical" name="LTCTC"> F  </i>
   <i type="logical" name="LTCTE"> F  </i>
   <i type="logical" name="LTETE"> F  </i>
   <i type="logical" name="LTRIPLET"> F  </i>
   <i type="logical" name="LFXCEPS"> F  </i>
   <i type="logical" name="LFXHEG"> F  </i>
   <i type="int" name="NATURALO">     2</i>
   <i type="logical" name="LHOLEGF"> F  </i>
   <i type="logical" name="L2ORDER"> F  </i>
   <i type="logical" name="LDMP1"> F  </i>
   <i type="logical" name="LMP2LT"> F  </i>
   <i type="logical" name="LSMP2LT"> F  </i>
   <i type="logical" name="LGWLF"> F  </i>
   <i name="ENCUTGW">     -1.60000002</i>
   <i name="ENCUTGWSOFT">     -1.60000002</i>
   <i name="ENCUTLF">     -1.00000000</i>
   <i type="logical" name="ESF_SPLINES"> F  </i>
   <i name="ESF_CONV">      0.01000000</i>
   <i type="int" name="ESF_NINTER">    15</i>
   <i type="int" name="LMAXMP2">    -1</i>
   <i name="SCISSOR">      0.00000000</i>
   <i type="int" name="NOMEGA">     0</i>
   <i type="int" name="NOMEGAR">     0</i>
   <i type="int" name="NBANDSGW">    -1</i>
   <i type="int" name="NBANDSO">    -1</i>
   <i type="int" name="NBANDSV">    -1</i>
   <i type="int" name="NELMGW">     1</i>
   <i type="int" name="NELMHF">     1</i>
   <i type="int" name="DIM">     3</i>
   <i type="int" name="IESPILON">     4</i>
   <i type="int" name="ANTIRES">     0</i>
   <i name="OMEGAMAX">    -30.00000000</i>
   <i name="OMEGAMIN">    -30.00000000</i>
   <i name="OMEGATL">   -200.00000000</i>
   <i type="int" name="OMEGAGRID">     0</i>
   <i name="CSHIFT">     -0.10000000</i>
   <i type="logical" name="LSELFENERGY"> F  </i>
   <i type="logical" name="LSPECTRAL"> F  </i>
   <i type="logical" name="LSPECTRALGW"> F  </i>
   <i type="logical" name="LSINGLES"> F  </i>
   <i type="logical" name="LFERMIGW"> F  </i>
   <i type="logical" name="ODDONLYGW"> F  </i>
   <i type="logical" name="EVENONLYGW"> F  </i>
   <i type="int" name="NKREDLFX">     1</i>
   <i type="int" name="NKREDLFY">     1</i>
   <i type="int" name="NKREDLFZ">     1</i>
   <i type="int" name="MAXMEM">  2800</i>
   <i type="int" name="TELESCOPE">     0</i>
   <i type="int" name="NTAUPAR">    -1</i>
   <i type="int" name="NOMEGAPAR">    -1</i>
   <i name="DAMP_NEWTON">      0.80000001</i>
   <i name="LAMBDA">      1.00000000</i>
  </separator>
  <separator name="External order field" >
   <i name="OFIELD_KAPPA">      0.00000000</i>
   <v name="OFIELD_K">      0.00000000      0.00000000      0.00000000</v>
   <i name="OFIELD_Q6_NEAR">      0.00000000</i>
   <i name="OFIELD_Q6_FAR">      0.00000000</i>
   <i name="OFIELD_A">      0.00000000</i>
  </separator>
  <separator name="optional k-points parameters" >
   <i type="int" name="KPOINTS_OPT_MODE">     1</i>
   <i type="logical" name="LKPOINTS_OPT"> F  </i>
  </separator>
 </parameters>
 <atominfo>
  <atoms>       8 </atoms>
  <types>       2 </types>
  <array name="atoms" >
   <dimension dim="1">ion</dimension>
   <field type="string">element</field>
   <field type="int">atomtype</field>
   <set>
    <rc><c>Cs</c><c>   1</c></rc>
    <rc><c>Cs</c><c>   1</c></rc>
    <rc><c>Cs</c><c>   1</c></rc>
    <rc><c>Cs</c><c>   1</c></rc>
    <rc><c>Cl</c><c>   2</c></rc>
    <rc><c>Cl</c><c>   2</c></rc>
    <rc><c>Cl</c><c>   2</c></rc>
    <rc><c>Cl</c><c>   2</c></rc>
   </set>
  </array>
  <array name="atomtypes" >
   <dimension dim="1">type</dimension>
   <field type="int">atomspertype</field>
   <field type="string">element</field>
   <field>mass</field>
   <field>valence</field>
   <field type="string">pseudopotential</field>
   <set>
    <rc><c>   4</c><c>Cs</c><c>    132.90000000</c><c>      9.00000000</c><c>  PAW_PBE Cs_sv 25Jan2019               </c></rc>
    <rc><c>   4</c><c>Cl</c><c>     35.45300000</c><c>      7.00000000</c><c>  PAW_PBE Cl 06Sep2000                  </c></rc>
   </set>
  </array>
 </atominfo>
 <structure name="initialpos" >
  <crystal>
   <varray name="basis" >
    <v>       4.14369834       4.14369834       0.00000000 </v>
    <v>       4.14369834      -4.14369834       0.00000000 </v>
    <v>       0.00000000       4.14369834      -8.28739668 </v>
   </varray>
   <i name="volume">    284.59311253 </i>
   <varray name="rec_basis" >
    <v>       0.12066515       0.12066515       0.06033258 </v>
    <v>       0.12066515      -0.12066515      -0.06033258 </v>
    <v>       0.00000000       0.00000000      -0.12066515 </v>
   </varray>
  </crystal>
  <varray name="positions" >
   <v>       0.00000000       0.00000000       0.00107926 </v>
   <v>       0.50000000       0.50000000       0.00000000 </v>
   <v>       0.25000000       0.75000000       0.50000000 </v>
   <v>       0.75000000       0.25000000       0.50000000 </v>
   <v>       0.62500000       0.87500000       0.75000000 </v>
   <v>       0.12500000       0.37500000       0.75000000 </v>
   <v>       0.87500000       0.62500000       0.25000000 </v>
   <v>       0.37500000       0.12500000       0.25000000 </v>
  </varray>
 </structure>
 <calculation>
  <scstep>
   <time name="dav">    1.23    1.24</time>
   <time name="total">    1.26    1.27</time>
   <energy>
    <i name="alphaZ">    214.16676563 </i>
    <i name="ewald">  -3265.84660675 </i>
    <i name="hartreedc">   -531.75860431 </i>
    <i name="XCdc">   -120.86788610 </i>
    <i name="pawpsdc">   3246.12869203 </i>
    <i name="pawaedc">  -2972.40719683 </i>
    <i name="eentropy">     -0.00015873 </i>
    <i name="bandstr">     37.76929113 </i>
    <i name="atom">   3861.61514281 </i>
    <i name="e_fr_energy">    468.79943889 </i>
    <i name="e_wo_entrp">    468.79959761 </i>
    <i name="e_0_energy">    468.79951825 </i>
   </energy>
  </scstep>
  <scstep>
   <time name="dav">    1.51    1.51</time>
   <time name="total">    1.51    1.52</time>
   <energy>
    <i name="e_fr_energy">     16.32607648 </i>
    <i name="e_wo_entrp">     16.32607648 </i>
    <i name="e_0_energy">     16.32607648 </i>
   </energy>
  </scstep>
  <scstep>
   <time name="dav">    1.38    1.38</time>
   <time name="total">    1.38    1.38</time>
   <energy>
    <i name="e_fr_energy">    -27.12471741 </i>
    <i name="e_wo_entrp">    -27.12471741 </i>
    <i name="e_0_energy">    -27.12471741 </i>
   </energy>
  </scstep>
  <scstep>
   <time name="dav">    1.38    1.38</time>
   <time name="total">    1.38    1.38</time>
   <energy>
    <i name="e_fr_energy">    -27.79896798 </i>
    <i name="e_wo_entrp">    -27.79896798 </i>
    <i name="e_0_energy">    -27.79896798 </i>
   </energy>
  </scstep>
  <scstep>
   <time name="dav">    1.32    1.32</time>
   <time name="total">    1.42    1.42</time>
   <energy>
    <i name="e_fr_energy">    -27.81209544 </i>
    <i name="e_wo_entrp">    -27.81209544 </i>
    <i name="e_0_energy">    -27.81209544 </i>
   </energy>
  </scstep>
  <scstep>
   <time name="dav">    1.33    1.33</time>
   <time name="total">    1.45    1.45</time>
   <energy>
    <i name="e_fr_energy">    -26.30026182 </i>
    <i name="e_wo_entrp">    -26.30026182 </i>
    <i name="e_0_energy">    -26.30026182 </i>
   </energy>
  </scstep>
  <scstep>
   <time name="dav">    1.47    1.47</time>
   <time name="total">    1.59    1.59</time>
   <energy>
    <i name="e_fr_energy">    -26.12948550 </i>
    <i name="e_wo_entrp">    -26.12948550 </i>
    <i name="e_0_energy">    -26.12948550 </i>
   </energy>
  </scstep>
  <scstep>
   <time name="dav">    1.34    1.34</time>
   <time name="total">    1.46    1.46</time>
   <energy>
    <i name="e_fr_energy">    -26.13389547 </i>
    <i name="e_wo_entrp">    -26.13389547 </i>
    <i name="e_0_energy">    -26.13389547 </i>
   </energy>
  </scstep>
  <scstep>
   <time name="dav">    1.46    1.47</time>
   <time name="total">    1.58    1.58</time>
   <energy>
    <i name="e_fr_energy">    -26.13140574 </i>
    <i name="e_wo_entrp">    -26.13140574 </i>
    <i name="e_0_energy">    -26.13140574 </i>
   </energy>
  </scstep>
  <scstep>
   <time name="dav">    1.34    1.34</time>
   <time name="total">    1.47    1.47</time>
   <energy>
    <i name="e_fr_energy">    -26.13206100 </i>
    <i name="e_wo_entrp">    -26.13206100 </i>
    <i name="e_0_energy">    -26.13206100 </i>
   </energy>
  </scstep>
  <scstep>
   <time name="dav">    1.34    1.34</time>
   <time name="total">    1.46    1.46</time>
   <energy>
    <i name="e_fr_energy">    -26.13224592 </i>
    <i name="e_wo_entrp">    -26.13224592 </i>
    <i name="e_0_energy">    -26.13224592 </i>
   </energy>
  </scstep>
  <scstep>
   <time name="dav">    1.34    1.34</time>
   <time name="total">    1.46    1.47</time>
   <energy>
    <i name="e_fr_energy">    -26.13225408 </i>
    <i name="e_wo_entrp">    -26.13225408 </i>
    <i name="e_0_energy">    -26.13225408 </i>
   </energy>
  </scstep>
  <scstep>
   <time name="dav">    1.41    1.41</time>
   <time name="total">    1.53    1.53</time>
   <energy>
    <i name="e_fr_energy">    -26.13225308 </i>
    <i name="e_wo_entrp">    -26.13225308 </i>
    <i name="e_0_energy">    -26.13225308 </i>
   </energy>
  </scstep>
  <scstep>
   <time name="dav">    1.15    1.15</time>
   <time name="total">    1.27    1.27</time>
   <energy>
    <i name="e_fr_energy">    -26.13225309 </i>
    <i name="e_wo_entrp">    -26.13225309 </i>
    <i name="e_0_energy">    -26.13225309 </i>
   </energy>
  </scstep>
  <scstep>
   <time name="dav">    1.06    1.06</time>
   <time name="total">    1.09    1.09</time>
   <energy>
    <i name="alphaZ">    214.16676563 </i>
    <i name="ewald">  -3265.84660675 </i>
    <i name="hartreedc">   -554.75595677 </i>
    <i name="XCdc">   -118.49242654 </i>
    <i name="pawpsdc">   3633.68140314 </i>
    <i name="pawaedc">  -3361.17830960 </i>
    <i name="eentropy">     -0.00000000 </i>
    <i name="bandstr">   -435.32226503 </i>
    <i name="atom">   3861.61514281 </i>
    <i name="e_fr_energy">    -26.13225310 </i>
    <i name="e_wo_entrp">    -26.13225310 </i>
    <i name="e_0_energy">    -26.13225310 </i>
   </energy>
  </scstep>
  <structure>
   <crystal>
    <varray name="basis" >
     <v>       4.14369834       4.14369834       0.00000000 </v>
     <v>       4.14369834      -4.14369834       0.00000000 </v>
     <v>       0.00000000       4.14369834      -8.28739668 </v>
    </varray>
    <i name="volume">    284.59311253 </i>
    <varray name="rec_basis" >
     <v>       0.12066515       0.12066515       0.06033258 </v>
     <v>       0.12066515      -0.12066515      -0.06033258 </v>
     <v>       0.00000000       0.00000000      -0.12066515 </v>
    </varray>
   </crystal>
   <varray name="positions" >
    <v>       0.00000000       0.00000000       0.00107926 </v>
    <v>       0.50000000       0.50000000       0.00000000 </v>
    <v>       0.25000000       0.75000000       0.50000000 </v>
    <v>       0.75000000       0.25000000       0.50000000 </v>
    <v>       0.62500000       0.87500000       0.75000000 </v>
    <v>       0.12500000       0.37500000       0.75000000 </v>
    <v>       0.87500000       0.62500000       0.25000000 </v>
    <v>       0.37500000       0.12500000       0.25000000 </v>
   </varray>
  </structure>
  <varray name="forces" >
   <v>      -0.00000000      -0.00585336       0.01426764 </v>
   <v>       0.00000000       0.00272801       0.00388739 </v>
   <v>      -0.00000000      -0.00018257      -0.00555453 </v>
   <v>      -0.00000000      -0.00018916      -0.00559438 </v>
   <v>       0.00055826       0.00084545      -0.00171537 </v>
   <v>      -0.00055826       0.00084545      -0.00171537 </v>
   <v>      -0.00061621       0.00090310      -0.00178769 </v>
   <v>       0.00061621       0.00090310      -0.00178769 </v>
  </varray>
  <varray name="stress" >
   <v>       7.40992703       0.00000000       0.00000000 </v>
   <v>       0.00000000       7.40885808      -0.00118924 </v>
   <v>       0.00000000      -0.00118930       7.41494385 </v>
  </varray>
  <energy>
   <i name="e_fr_energy">    -26.13225310 </i>
   <i name="e_wo_entrp">    -26.13225310 </i>
   <i name="e_0_energy">    -26.13225310 </i>
  </energy>
  <time name="totalsc">   22.62   22.65</time>
  <eigenvalues>
   <array>
    <dimension dim="1">band</dimension>
    <dimension dim="2">kpoint</dimension>
    <dimension dim="3">spin</dimension>
    <field>eigene</field>
    <field>occ</field>
    <set>
     <set comment="spin 1">
      <set comment="kpoint 1">
       <r>  -19.7963    1.0000 </r>
       <r>  -19.7193    1.0000 </r>
       <r>  -19.6230    1.0000 </r>
       <r>  -19.6222    1.0000 </r>
       <r>  -12.5934    1.0000 </r>
       <r>  -12.5522    1.0000 </r>
       <r>  -12.4351    1.0000 </r>
       <r>  -12.4251    1.0000 </r>
       <r>   -6.9255    1.0000 </r>
       <r>   -6.9255    1.0000 </r>
       <r>   -6.9235    1.0000 </r>
       <r>   -6.9235    1.0000 </r>
       <r>   -6.8087    1.0000 </r>
       <r>   -6.4644    1.0000 </r>
       <r>   -6.4579    1.0000 </r>
       <r>   -6.2936    1.0000 </r>
       <r>   -6.2936    1.0000 </r>
       <r>   -6.2935    1.0000 </r>
       <r>   -6.1597    1.0000 </r>
       <r>   -6.1597    1.0000 </r>
       <r>   -1.5317    1.0000 </r>
       <r>   -1.1418    1.0000 </r>
       <r>   -1.1418    1.0000 </r>
       <r>   -1.1332    1.0000 </r>
       <r>   -1.1332    1.0000 </r>
       <r>   -1.0050    1.0000 </r>
       <r>   -0.9954    1.0000 </r>
       <r>   -0.6185    1.0000 </r>
       <r>   -0.6185    1.0000 </r>
       <r>   -0.3952    1.0000 </r>
       <r>   -0.3951    1.0000 </r>
       <r>   -0.3951    1.0000 </r>
       <r>    4.7979    0.0000 </r>
       <r>    5.0131    0.0000 </r>
       <r>    5.0132    0.0000 </r>
       <r>    6.0111    0.0000 </r>
       <r>    6.7865    0.0000 </r>
       <r>    6.7904    0.0000 </r>
       <r>    7.1415    0.0000 </r>
       <r>    7.1909    0.0000 </r>
      </set>
      <set comment="kpoint 2">
       <r>  -19.7898    1.0000 </r>
       <r>  -19.7151    1.0000 </r>
       <r>  -19.6336    1.0000 </r>
       <r>  -19.6214    1.0000 </r>
       <r>  -12.5842    1.0000 </r>
       <r>  -12.5545    1.0000 </r>
       <r>  -12.4472    1.0000 </r>
       <r>  -12.4286    1.0000 </r>
       <r>   -6.9221    1.0000 </r>
       <r>   -6.9117    1.0000 </r>
       <r>   -6.8787    1.0000 </r>
       <r>   -6.8758    1.0000 </r>
       <r>   -6.8198    1.0000 </r>
       <r>   -6.5443    1.0000 </r>
       <r>   -6.4005    1.0000 </r>
       <r>   -6.3239    1.0000 </r>
       <r>   -6.3035    1.0000 </r>
       <r>   -6.2836    1.0000 </r>
       <r>   -6.2045    1.0000 </r>
       <r>   -6.1885    1.0000 </r>
       <r>   -1.4622    1.0000 </r>
       <r>   -1.2220    1.0000 </r>
       <r>   -1.1775    1.0000 </r>
       <r>   -1.1070    1.0000 </r>
       <r>   -1.0566    1.0000 </r>
       <r>   -1.0078    1.0000 </r>
       <r>   -0.8412    1.0000 </r>
       <r>   -0.6525    1.0000 </r>
       <r>   -0.5913    1.0000 </r>
       <r>   -0.5012    1.0000 </r>
       <r>   -0.4208    1.0000 </r>
       <r>   -0.4157    1.0000 </r>
       <r>    5.0066    0.0000 </r>
       <r>    5.1216    0.0000 </r>
       <r>    5.1708    0.0000 </r>
       <r>    6.0964    0.0000 </r>
       <r>    6.5682    0.0000 </r>
       <r>    6.8534    0.0000 </r>
       <r>    6.9507    0.0000 </r>
       <r>    7.1196    0.0000 </r>
      </set>
      <set comment="kpoint 3">
       <r>  -19.7716    1.0000 </r>
       <r>  -19.7032    1.0000 </r>
       <r>  -19.6538    1.0000 </r>
       <r>  -19.6296    1.0000 </r>
       <r>  -12.5638    1.0000 </r>
       <r>  -12.5538    1.0000 </r>
       <r>  -12.4763    1.0000 </r>
       <r>  -12.4417    1.0000 </r>
       <r>   -6.8719    1.0000 </r>
       <r>   -6.8429    1.0000 </r>
       <r>   -6.8238    1.0000 </r>
       <r>   -6.7924    1.0000 </r>
       <r>   -6.7901    1.0000 </r>
       <r>   -6.6461    1.0000 </r>
       <r>   -6.4078    1.0000 </r>
       <r>   -6.3573    1.0000 </r>
       <r>   -6.3358    1.0000 </r>
       <r>   -6.3158    1.0000 </r>
       <r>   -6.2697    1.0000 </r>
       <r>   -6.2682    1.0000 </r>
       <r>   -1.2984    1.0000 </r>
       <r>   -1.2096    1.0000 </r>
       <r>   -1.1675    1.0000 </r>
       <r>   -1.0721    1.0000 </r>
       <r>   -0.9486    1.0000 </r>
       <r>   -0.9451    1.0000 </r>
       <r>   -0.7450    1.0000 </r>
       <r>   -0.7274    1.0000 </r>
       <r>   -0.7079    1.0000 </r>
       <r>   -0.5446    1.0000 </r>
       <r>   -0.4906    1.0000 </r>
       <r>   -0.4724    1.0000 </r>
       <r>    5.4133    0.0000 </r>
       <r>    5.5457    0.0000 </r>
       <r>    5.6239    0.0000 </r>
       <r>    6.3583    0.0000 </r>
       <r>    6.5396    0.0000 </r>
       <r>    6.6643    0.0000 </r>
       <r>    6.9626    0.0000 </r>
       <r>    7.0058    0.0000 </r>
      </set>
      <set comment="kpoint 4">
       <r>  -19.7445    1.0000 </r>
       <r>  -19.6857    1.0000 </r>
       <r>  -19.6811    1.0000 </r>
       <r>  -19.6451    1.0000 </r>
       <r>  -12.5573    1.0000 </r>
       <r>  -12.5242    1.0000 </r>
       <r>  -12.5113    1.0000 </r>
       <r>  -12.4630    1.0000 </r>
       <r>   -6.8525    1.0000 </r>
       <r>   -6.7801    1.0000 </r>
       <r>   -6.7496    1.0000 </r>
       <r>   -6.6904    1.0000 </r>
       <r>   -6.6778    1.0000 </r>
       <r>   -6.6687    1.0000 </r>
       <r>   -6.5274    1.0000 </r>
       <r>   -6.4498    1.0000 </r>
       <r>   -6.4025    1.0000 </r>
       <r>   -6.3895    1.0000 </r>
       <r>   -6.3237    1.0000 </r>
       <r>   -6.2717    1.0000 </r>
       <r>   -1.1325    1.0000 </r>
       <r>   -1.1061    1.0000 </r>
       <r>   -1.0884    1.0000 </r>
       <r>   -1.0302    1.0000 </r>
       <r>   -0.9143    1.0000 </r>
       <r>   -0.8715    1.0000 </r>
       <r>   -0.8617    1.0000 </r>
       <r>   -0.8272    1.0000 </r>
       <r>   -0.6597    1.0000 </r>
       <r>   -0.5894    1.0000 </r>
       <r>   -0.5673    1.0000 </r>
       <r>   -0.5498    1.0000 </r>
       <r>    5.8394    0.0000 </r>
       <r>    6.1950    0.0000 </r>
       <r>    6.3224    0.0000 </r>
       <r>    6.5100    0.0000 </r>
       <r>    6.7616    0.0000 </r>
       <r>    6.8041    0.0000 </r>
       <r>    6.8353    0.0000 </r>
       <r>    6.9357    0.0000 </r>
      </set>
      <set comment="kpoint 5">
       <r>  -19.7138    1.0000 </r>
       <r>  -19.7120    1.0000 </r>
       <r>  -19.6652    1.0000 </r>
       <r>  -19.6645    1.0000 </r>
       <r>  -12.5409    1.0000 </r>
       <r>  -12.5408    1.0000 </r>
       <r>  -12.4913    1.0000 </r>
       <r>  -12.4910    1.0000 </r>
       <r>   -6.8265    1.0000 </r>
       <r>   -6.8202    1.0000 </r>
       <r>   -6.6612    1.0000 </r>
       <r>   -6.6570    1.0000 </r>
       <r>   -6.5786    1.0000 </r>
       <r>   -6.5766    1.0000 </r>
       <r>   -6.5303    1.0000 </r>
       <r>   -6.5282    1.0000 </r>
       <r>   -6.5217    1.0000 </r>
       <r>   -6.5196    1.0000 </r>
       <r>   -6.2957    1.0000 </r>
       <r>   -6.2932    1.0000 </r>
       <r>   -1.0420    1.0000 </r>
       <r>   -1.0411    1.0000 </r>
       <r>   -1.0015    1.0000 </r>
       <r>   -1.0009    1.0000 </r>
       <r>   -0.9971    1.0000 </r>
       <r>   -0.9964    1.0000 </r>
       <r>   -0.7076    1.0000 </r>
       <r>   -0.7067    1.0000 </r>
       <r>   -0.7046    1.0000 </r>
       <r>   -0.7044    1.0000 </r>
       <r>   -0.6218    1.0000 </r>
       <r>   -0.6205    1.0000 </r>
       <r>    6.2522    0.0000 </r>
       <r>    6.2546    0.0000 </r>
       <r>    6.7171    0.0000 </r>
       <r>    6.7211    0.0000 </r>
       <r>    6.8774    0.0000 </r>
       <r>    6.8798    0.0000 </r>
       <r>    7.2021    0.0000 </r>
       <r>    7.2027    0.0000 </r>
      </set>
      <set comment="kpoint 6">
       <r>  -19.7852    1.0000 </r>
       <r>  -19.7098    1.0000 </r>
       <r>  -19.6325    1.0000 </r>
       <r>  -19.6317    1.0000 </r>
       <r>  -12.5765    1.0000 </r>
       <r>  -12.5565    1.0000 </r>
       <r>  -12.4504    1.0000 </r>
       <r>  -12.4403    1.0000 </r>
       <r>   -6.9227    1.0000 </r>
       <r>   -6.9210    1.0000 </r>
       <r>   -6.8399    1.0000 </r>
       <r>   -6.8225    1.0000 </r>
       <r>   -6.8205    1.0000 </r>
       <r>   -6.4872    1.0000 </r>
       <r>   -6.4806    1.0000 </r>
       <r>   -6.3787    1.0000 </r>
       <r>   -6.3070    1.0000 </r>
       <r>   -6.2746    1.0000 </r>
       <r>   -6.2746    1.0000 </r>
       <r>   -6.1476    1.0000 </r>
       <r>   -1.4122    1.0000 </r>
       <r>   -1.1605    1.0000 </r>
       <r>   -1.1570    1.0000 </r>
       <r>   -1.1299    1.0000 </r>
       <r>   -1.1214    1.0000 </r>
       <r>   -0.8608    1.0000 </r>
       <r>   -0.8572    1.0000 </r>
       <r>   -0.6580    1.0000 </r>
       <r>   -0.5988    1.0000 </r>
       <r>   -0.5941    1.0000 </r>
       <r>   -0.4264    1.0000 </r>
       <r>   -0.4262    1.0000 </r>
       <r>    5.1165    0.0000 </r>
       <r>    5.1573    0.0000 </r>
       <r>    5.3824    0.0000 </r>
       <r>    6.1389    0.0000 </r>
       <r>    6.7390    0.0000 </r>
       <r>    6.7419    0.0000 </r>
       <r>    7.1686    0.0000 </r>
       <r>    7.2308    0.0000 </r>
      </set>
      <set comment="kpoint 7">
       <r>  -19.7694    1.0000 </r>
       <r>  -19.6975    1.0000 </r>
       <r>  -19.6513    1.0000 </r>
       <r>  -19.6389    1.0000 </r>
       <r>  -12.5648    1.0000 </r>
       <r>  -12.5495    1.0000 </r>
       <r>  -12.4755    1.0000 </r>
       <r>  -12.4550    1.0000 </r>
       <r>   -6.9029    1.0000 </r>
       <r>   -6.8861    1.0000 </r>
       <r>   -6.8734    1.0000 </r>
       <r>   -6.7193    1.0000 </r>
       <r>   -6.6929    1.0000 </r>
       <r>   -6.5803    1.0000 </r>
       <r>   -6.4740    1.0000 </r>
       <r>   -6.4560    1.0000 </r>
       <r>   -6.4374    1.0000 </r>
       <r>   -6.2759    1.0000 </r>
       <r>   -6.2530    1.0000 </r>
       <r>   -6.1707    1.0000 </r>
       <r>   -1.2678    1.0000 </r>
       <r>   -1.1621    1.0000 </r>
       <r>   -1.1248    1.0000 </r>
       <r>   -1.0960    1.0000 </r>
       <r>   -1.0418    1.0000 </r>
       <r>   -0.8209    1.0000 </r>
       <r>   -0.8192    1.0000 </r>
       <r>   -0.7344    1.0000 </r>
       <r>   -0.7032    1.0000 </r>
       <r>   -0.5491    1.0000 </r>
       <r>   -0.4801    1.0000 </r>
       <r>   -0.4691    1.0000 </r>
       <r>    5.3285    0.0000 </r>
       <r>    5.6011    0.0000 </r>
       <r>    5.8837    0.0000 </r>
       <r>    6.2181    0.0000 </r>
       <r>    6.6585    0.0000 </r>
       <r>    6.8235    0.0000 </r>
       <r>    6.9717    0.0000 </r>
       <r>    6.9777    0.0000 </r>
      </set>
      <set comment="kpoint 8">
       <r>  -19.7452    1.0000 </r>
       <r>  -19.6803    1.0000 </r>
       <r>  -19.6771    1.0000 </r>
       <r>  -19.6524    1.0000 </r>
       <r>  -12.5635    1.0000 </r>
       <r>  -12.5184    1.0000 </r>
       <r>  -12.5099    1.0000 </r>
       <r>  -12.4734    1.0000 </r>
       <r>   -6.8961    1.0000 </r>
       <r>   -6.8286    1.0000 </r>
       <r>   -6.8216    1.0000 </r>
       <r>   -6.7011    1.0000 </r>
       <r>   -6.6054    1.0000 </r>
       <r>   -6.5935    1.0000 </r>
       <r>   -6.5776    1.0000 </r>
       <r>   -6.5261    1.0000 </r>
       <r>   -6.3976    1.0000 </r>
       <r>   -6.3254    1.0000 </r>
       <r>   -6.2516    1.0000 </r>
       <r>   -6.2393    1.0000 </r>
       <r>   -1.1213    1.0000 </r>
       <r>   -1.0908    1.0000 </r>
       <r>   -1.0598    1.0000 </r>
       <r>   -1.0301    1.0000 </r>
       <r>   -1.0180    1.0000 </r>
       <r>   -0.9087    1.0000 </r>
       <r>   -0.8524    1.0000 </r>
       <r>   -0.7785    1.0000 </r>
       <r>   -0.6329    1.0000 </r>
       <r>   -0.5723    1.0000 </r>
       <r>   -0.5476    1.0000 </r>
       <r>   -0.5196    1.0000 </r>
       <r>    5.7101    0.0000 </r>
       <r>    6.1485    0.0000 </r>
       <r>    6.3777    0.0000 </r>
       <r>    6.5840    0.0000 </r>
       <r>    6.6474    0.0000 </r>
       <r>    6.7710    0.0000 </r>
       <r>    6.8373    0.0000 </r>
       <r>    6.8922    0.0000 </r>
      </set>
      <set comment="kpoint 9">
       <r>  -19.7167    1.0000 </r>
       <r>  -19.7073    1.0000 </r>
       <r>  -19.6698    1.0000 </r>
       <r>  -19.6604    1.0000 </r>
       <r>  -12.5507    1.0000 </r>
       <r>  -12.5403    1.0000 </r>
       <r>  -12.4962    1.0000 </r>
       <r>  -12.4858    1.0000 </r>
       <r>   -6.8827    1.0000 </r>
       <r>   -6.8014    1.0000 </r>
       <r>   -6.7283    1.0000 </r>
       <r>   -6.7213    1.0000 </r>
       <r>   -6.7189    1.0000 </r>
       <r>   -6.7064    1.0000 </r>
       <r>   -6.4356    1.0000 </r>
       <r>   -6.4299    1.0000 </r>
       <r>   -6.3852    1.0000 </r>
       <r>   -6.3695    1.0000 </r>
       <r>   -6.3570    1.0000 </r>
       <r>   -6.2439    1.0000 </r>
       <r>   -1.1011    1.0000 </r>
       <r>   -1.0699    1.0000 </r>
       <r>   -1.0458    1.0000 </r>
       <r>   -1.0422    1.0000 </r>
       <r>   -0.9603    1.0000 </r>
       <r>   -0.8972    1.0000 </r>
       <r>   -0.7576    1.0000 </r>
       <r>   -0.6975    1.0000 </r>
       <r>   -0.6877    1.0000 </r>
       <r>   -0.6642    1.0000 </r>
       <r>   -0.6012    1.0000 </r>
       <r>   -0.5563    1.0000 </r>
       <r>    6.1151    0.0000 </r>
       <r>    6.4623    0.0000 </r>
       <r>    6.6099    0.0000 </r>
       <r>    6.6298    0.0000 </r>
       <r>    6.7277    0.0000 </r>
       <r>    6.7305    0.0000 </r>
       <r>    6.7390    0.0000 </r>
       <r>    6.8057    0.0000 </r>
      </set>
      <set comment="kpoint 10">
       <r>  -19.7377    1.0000 </r>
       <r>  -19.6888    1.0000 </r>
       <r>  -19.6868    1.0000 </r>
       <r>  -19.6417    1.0000 </r>
       <r>  -12.5583    1.0000 </r>
       <r>  -12.5242    1.0000 </r>
       <r>  -12.5231    1.0000 </r>
       <r>  -12.4586    1.0000 </r>
       <r>   -6.8370    1.0000 </r>
       <r>   -6.8357    1.0000 </r>
       <r>   -6.8305    1.0000 </r>
       <r>   -6.8076    1.0000 </r>
       <r>   -6.5984    1.0000 </r>
       <r>   -6.5921    1.0000 </r>
       <r>   -6.5901    1.0000 </r>
       <r>   -6.5051    1.0000 </r>
       <r>   -6.3403    1.0000 </r>
       <r>   -6.2985    1.0000 </r>
       <r>   -6.2635    1.0000 </r>
       <r>   -6.2628    1.0000 </r>
       <r>   -1.1412    1.0000 </r>
       <r>   -1.0907    1.0000 </r>
       <r>   -1.0900    1.0000 </r>
       <r>   -1.0577    1.0000 </r>
       <r>   -0.9932    1.0000 </r>
       <r>   -0.8292    1.0000 </r>
       <r>   -0.8126    1.0000 </r>
       <r>   -0.8116    1.0000 </r>
       <r>   -0.6150    1.0000 </r>
       <r>   -0.5739    1.0000 </r>
       <r>   -0.5731    1.0000 </r>
       <r>   -0.5523    1.0000 </r>
       <r>    5.9311    0.0000 </r>
       <r>    6.2620    0.0000 </r>
       <r>    6.3507    0.0000 </r>
       <r>    6.3508    0.0000 </r>
       <r>    6.6773    0.0000 </r>
       <r>    6.7119    0.0000 </r>
       <r>    6.7164    0.0000 </r>
       <r>    6.7764    0.0000 </r>
      </set>
      <set comment="kpoint 11">
       <r>  -19.7640    1.0000 </r>
       <r>  -19.7030    1.0000 </r>
       <r>  -19.6627    1.0000 </r>
       <r>  -19.6274    1.0000 </r>
       <r>  -12.5638    1.0000 </r>
       <r>  -12.5498    1.0000 </r>
       <r>  -12.4909    1.0000 </r>
       <r>  -12.4392    1.0000 </r>
       <r>   -6.9194    1.0000 </r>
       <r>   -6.8716    1.0000 </r>
       <r>   -6.8363    1.0000 </r>
       <r>   -6.7471    1.0000 </r>
       <r>   -6.7360    1.0000 </r>
       <r>   -6.6373    1.0000 </r>
       <r>   -6.4806    1.0000 </r>
       <r>   -6.4512    1.0000 </r>
       <r>   -6.3057    1.0000 </r>
       <r>   -6.2940    1.0000 </r>
       <r>   -6.2601    1.0000 </r>
       <r>   -6.1795    1.0000 </r>
       <r>   -1.2327    1.0000 </r>
       <r>   -1.2311    1.0000 </r>
       <r>   -1.1790    1.0000 </r>
       <r>   -1.0577    1.0000 </r>
       <r>   -0.9407    1.0000 </r>
       <r>   -0.9307    1.0000 </r>
       <r>   -0.8403    1.0000 </r>
       <r>   -0.7153    1.0000 </r>
       <r>   -0.6059    1.0000 </r>
       <r>   -0.5477    1.0000 </r>
       <r>   -0.5065    1.0000 </r>
       <r>   -0.4875    1.0000 </r>
       <r>    5.4647    0.0000 </r>
       <r>    5.7155    0.0000 </r>
       <r>    5.9625    0.0000 </r>
       <r>    6.1604    0.0000 </r>
       <r>    6.4320    0.0000 </r>
       <r>    6.4901    0.0000 </r>
       <r>    6.8566    0.0000 </r>
       <r>    6.9571    0.0000 </r>
      </set>
      <set comment="kpoint 12">
       <r>  -19.7824    1.0000 </r>
       <r>  -19.7127    1.0000 </r>
       <r>  -19.6440    1.0000 </r>
       <r>  -19.6200    1.0000 </r>
       <r>  -12.5757    1.0000 </r>
       <r>  -12.5568    1.0000 </r>
       <r>  -12.4622    1.0000 </r>
       <r>  -12.4284    1.0000 </r>
       <r>   -6.9515    1.0000 </r>
       <r>   -6.8918    1.0000 </r>
       <r>   -6.8601    1.0000 </r>
       <r>   -6.8222    1.0000 </r>
       <r>   -6.7829    1.0000 </r>
       <r>   -6.6221    1.0000 </r>
       <r>   -6.3831    1.0000 </r>
       <r>   -6.3385    1.0000 </r>
       <r>   -6.3083    1.0000 </r>
       <r>   -6.2918    1.0000 </r>
       <r>   -6.2700    1.0000 </r>
       <r>   -6.1527    1.0000 </r>
       <r>   -1.3854    1.0000 </r>
       <r>   -1.2696    1.0000 </r>
       <r>   -1.2138    1.0000 </r>
       <r>   -1.0407    1.0000 </r>
       <r>   -1.0323    1.0000 </r>
       <r>   -1.0120    1.0000 </r>
       <r>   -0.7107    1.0000 </r>
       <r>   -0.6503    1.0000 </r>
       <r>   -0.6265    1.0000 </r>
       <r>   -0.5873    1.0000 </r>
       <r>   -0.4444    1.0000 </r>
       <r>   -0.4321    1.0000 </r>
       <r>    5.1815    0.0000 </r>
       <r>    5.2399    0.0000 </r>
       <r>    5.4265    0.0000 </r>
       <r>    6.0906    0.0000 </r>
       <r>    6.4156    0.0000 </r>
       <r>    6.5815    0.0000 </r>
       <r>    7.0510    0.0000 </r>
       <r>    7.0807    0.0000 </r>
      </set>
      <set comment="kpoint 13">
       <r>  -19.7582    1.0000 </r>
       <r>  -19.6866    1.0000 </r>
       <r>  -19.6552    1.0000 </r>
       <r>  -19.6544    1.0000 </r>
       <r>  -12.5716    1.0000 </r>
       <r>  -12.5311    1.0000 </r>
       <r>  -12.4868    1.0000 </r>
       <r>  -12.4766    1.0000 </r>
       <r>   -6.9182    1.0000 </r>
       <r>   -6.9177    1.0000 </r>
       <r>   -6.9175    1.0000 </r>
       <r>   -6.6310    1.0000 </r>
       <r>   -6.5969    1.0000 </r>
       <r>   -6.5921    1.0000 </r>
       <r>   -6.5694    1.0000 </r>
       <r>   -6.5026    1.0000 </r>
       <r>   -6.4989    1.0000 </r>
       <r>   -6.2280    1.0000 </r>
       <r>   -6.2280    1.0000 </r>
       <r>   -6.1183    1.0000 </r>
       <r>   -1.1501    1.0000 </r>
       <r>   -1.1182    1.0000 </r>
       <r>   -1.1099    1.0000 </r>
       <r>   -1.0650    1.0000 </r>
       <r>   -1.0634    1.0000 </r>
       <r>   -1.0267    1.0000 </r>
       <r>   -0.7374    1.0000 </r>
       <r>   -0.6551    1.0000 </r>
       <r>   -0.6548    1.0000 </r>
       <r>   -0.5343    1.0000 </r>
       <r>   -0.5038    1.0000 </r>
       <r>   -0.5029    1.0000 </r>
       <r>    5.4068    0.0000 </r>
       <r>    5.9538    0.0000 </r>
       <r>    6.0085    0.0000 </r>
       <r>    6.4254    0.0000 </r>
       <r>    6.5216    0.0000 </r>
       <r>    6.6984    0.0000 </r>
       <r>    6.7008    0.0000 </r>
       <r>    7.2550    0.0000 </r>
      </set>
      <set comment="kpoint 14">
       <r>  -19.7401    1.0000 </r>
       <r>  -19.6762    1.0000 </r>
       <r>  -19.6722    1.0000 </r>
       <r>  -19.6633    1.0000 </r>
       <r>  -12.5758    1.0000 </r>
       <r>  -12.5147    1.0000 </r>
       <r>  -12.5046    1.0000 </r>
       <r>  -12.4915    1.0000 </r>
       <r>   -6.9527    1.0000 </r>
       <r>   -6.9028    1.0000 </r>
       <r>   -6.8861    1.0000 </r>
       <r>   -6.7823    1.0000 </r>
       <r>   -6.6730    1.0000 </r>
       <r>   -6.6620    1.0000 </r>
       <r>   -6.5121    1.0000 </r>
       <r>   -6.3921    1.0000 </r>
       <r>   -6.3750    1.0000 </r>
       <r>   -6.2322    1.0000 </r>
       <r>   -6.2064    1.0000 </r>
       <r>   -6.1363    1.0000 </r>
       <r>   -1.2141    1.0000 </r>
       <r>   -1.1287    1.0000 </r>
       <r>   -1.0853    1.0000 </r>
       <r>   -1.0261    1.0000 </r>
       <r>   -0.9764    1.0000 </r>
       <r>   -0.9244    1.0000 </r>
       <r>   -0.8052    1.0000 </r>
       <r>   -0.6214    1.0000 </r>
       <r>   -0.5714    1.0000 </r>
       <r>   -0.5661    1.0000 </r>
       <r>   -0.5426    1.0000 </r>
       <r>   -0.5134    1.0000 </r>
       <r>    5.6763    0.0000 </r>
       <r>    5.9393    0.0000 </r>
       <r>    6.2028    0.0000 </r>
       <r>    6.4039    0.0000 </r>
       <r>    6.6316    0.0000 </r>
       <r>    6.7740    0.0000 </r>
       <r>    6.7756    0.0000 </r>
       <r>    6.9032    0.0000 </r>
      </set>
      <set comment="kpoint 15">
       <r>  -19.7186    1.0000 </r>
       <r>  -19.7006    1.0000 </r>
       <r>  -19.6750    1.0000 </r>
       <r>  -19.6567    1.0000 </r>
       <r>  -12.5685    1.0000 </r>
       <r>  -12.5430    1.0000 </r>
       <r>  -12.5045    1.0000 </r>
       <r>  -12.4784    1.0000 </r>
       <r>   -6.9544    1.0000 </r>
       <r>   -6.8819    1.0000 </r>
       <r>   -6.8668    1.0000 </r>
       <r>   -6.8088    1.0000 </r>
       <r>   -6.7750    1.0000 </r>
       <r>   -6.7336    1.0000 </r>
       <r>   -6.4388    1.0000 </r>
       <r>   -6.3092    1.0000 </r>
       <r>   -6.2817    1.0000 </r>
       <r>   -6.2434    1.0000 </r>
       <r>   -6.2139    1.0000 </r>
       <r>   -6.2014    1.0000 </r>
       <r>   -1.2860    1.0000 </r>
       <r>   -1.1575    1.0000 </r>
       <r>   -1.0453    1.0000 </r>
       <r>   -0.9912    1.0000 </r>
       <r>   -0.8891    1.0000 </r>
       <r>   -0.8349    1.0000 </r>
       <r>   -0.7709    1.0000 </r>
       <r>   -0.6574    1.0000 </r>
       <r>   -0.5926    1.0000 </r>
       <r>   -0.5898    1.0000 </r>
       <r>   -0.5548    1.0000 </r>
       <r>   -0.5540    1.0000 </r>
       <r>    6.0425    0.0000 </r>
       <r>    6.1063    0.0000 </r>
       <r>    6.1823    0.0000 </r>
       <r>    6.2514    0.0000 </r>
       <r>    6.3864    0.0000 </r>
       <r>    6.5065    0.0000 </r>
       <r>    6.7896    0.0000 </r>
       <r>    6.8165    0.0000 </r>
      </set>
      <set comment="kpoint 16">
       <r>  -19.7256    1.0000 </r>
       <r>  -19.6967    1.0000 </r>
       <r>  -19.6871    1.0000 </r>
       <r>  -19.6425    1.0000 </r>
       <r>  -12.5607    1.0000 </r>
       <r>  -12.5471    1.0000 </r>
       <r>  -12.5195    1.0000 </r>
       <r>  -12.4580    1.0000 </r>
       <r>   -6.9341    1.0000 </r>
       <r>   -6.8992    1.0000 </r>
       <r>   -6.8623    1.0000 </r>
       <r>   -6.8486    1.0000 </r>
       <r>   -6.7137    1.0000 </r>
       <r>   -6.7062    1.0000 </r>
       <r>   -6.4497    1.0000 </r>
       <r>   -6.3735    1.0000 </r>
       <r>   -6.3353    1.0000 </r>
       <r>   -6.2159    1.0000 </r>
       <r>   -6.2128    1.0000 </r>
       <r>   -6.1584    1.0000 </r>
       <r>   -1.2357    1.0000 </r>
       <r>   -1.1445    1.0000 </r>
       <r>   -1.0602    1.0000 </r>
       <r>   -1.0498    1.0000 </r>
       <r>   -0.9925    1.0000 </r>
       <r>   -0.7648    1.0000 </r>
       <r>   -0.7527    1.0000 </r>
       <r>   -0.7370    1.0000 </r>
       <r>   -0.6390    1.0000 </r>
       <r>   -0.5431    1.0000 </r>
       <r>   -0.5409    1.0000 </r>
       <r>   -0.5322    1.0000 </r>
       <r>    5.9511    0.0000 </r>
       <r>    5.9639    0.0000 </r>
       <r>    6.3114    0.0000 </r>
       <r>    6.4071    0.0000 </r>
       <r>    6.4196    0.0000 </r>
       <r>    6.5331    0.0000 </r>
       <r>    6.5685    0.0000 </r>
       <r>    6.9246    0.0000 </r>
      </set>
      <set comment="kpoint 17">
       <r>  -19.7478    1.0000 </r>
       <r>  -19.6973    1.0000 </r>
       <r>  -19.6773    1.0000 </r>
       <r>  -19.6321    1.0000 </r>
       <r>  -12.5657    1.0000 </r>
       <r>  -12.5361    1.0000 </r>
       <r>  -12.5176    1.0000 </r>
       <r>  -12.4450    1.0000 </r>
       <r>   -6.9219    1.0000 </r>
       <r>   -6.9170    1.0000 </r>
       <r>   -6.8447    1.0000 </r>
       <r>   -6.8211    1.0000 </r>
       <r>   -6.6108    1.0000 </r>
       <r>   -6.6027    1.0000 </r>
       <r>   -6.5924    1.0000 </r>
       <r>   -6.4839    1.0000 </r>
       <r>   -6.3250    1.0000 </r>
       <r>   -6.2472    1.0000 </r>
       <r>   -6.2124    1.0000 </r>
       <r>   -6.1348    1.0000 </r>
       <r>   -1.1588    1.0000 </r>
       <r>   -1.1339    1.0000 </r>
       <r>   -1.1271    1.0000 </r>
       <r>   -1.1235    1.0000 </r>
       <r>   -1.0288    1.0000 </r>
       <r>   -0.8693    1.0000 </r>
       <r>   -0.8568    1.0000 </r>
       <r>   -0.7098    1.0000 </r>
       <r>   -0.5557    1.0000 </r>
       <r>   -0.5387    1.0000 </r>
       <r>   -0.5290    1.0000 </r>
       <r>   -0.5055    1.0000 </r>
       <r>    5.6259    0.0000 </r>
       <r>    5.9594    0.0000 </r>
       <r>    6.1124    0.0000 </r>
       <r>    6.3913    0.0000 </r>
       <r>    6.5425    0.0000 </r>
       <r>    6.5529    0.0000 </r>
       <r>    6.6139    0.0000 </r>
       <r>    6.7404    0.0000 </r>
      </set>
      <set comment="kpoint 18">
       <r>  -19.7308    1.0000 </r>
       <r>  -19.6777    1.0000 </r>
       <r>  -19.6769    1.0000 </r>
       <r>  -19.6631    1.0000 </r>
       <r>  -12.5863    1.0000 </r>
       <r>  -12.5224    1.0000 </r>
       <r>  -12.5121    1.0000 </r>
       <r>  -12.4867    1.0000 </r>
       <r>   -6.9985    1.0000 </r>
       <r>   -6.9207    1.0000 </r>
       <r>   -6.9172    1.0000 </r>
       <r>   -6.9169    1.0000 </r>
       <r>   -6.7420    1.0000 </r>
       <r>   -6.6138    1.0000 </r>
       <r>   -6.6066    1.0000 </r>
       <r>   -6.2479    1.0000 </r>
       <r>   -6.2467    1.0000 </r>
       <r>   -6.1800    1.0000 </r>
       <r>   -6.1800    1.0000 </r>
       <r>   -6.0885    1.0000 </r>
       <r>   -1.3928    1.0000 </r>
       <r>   -1.1360    1.0000 </r>
       <r>   -1.1276    1.0000 </r>
       <r>   -0.9126    1.0000 </r>
       <r>   -0.8677    1.0000 </r>
       <r>   -0.8664    1.0000 </r>
       <r>   -0.7985    1.0000 </r>
       <r>   -0.5846    1.0000 </r>
       <r>   -0.5842    1.0000 </r>
       <r>   -0.5414    1.0000 </r>
       <r>   -0.5359    1.0000 </r>
       <r>   -0.4700    1.0000 </r>
       <r>    5.6851    0.0000 </r>
       <r>    5.7944    0.0000 </r>
       <r>    5.8528    0.0000 </r>
       <r>    6.3907    0.0000 </r>
       <r>    6.3922    0.0000 </r>
       <r>    6.6112    0.0000 </r>
       <r>    6.6166    0.0000 </r>
       <r>    6.7654    0.0000 </r>
      </set>
      <set comment="kpoint 19">
       <r>  -19.7192    1.0000 </r>
       <r>  -19.6934    1.0000 </r>
       <r>  -19.6805    1.0000 </r>
       <r>  -19.6542    1.0000 </r>
       <r>  -12.5858    1.0000 </r>
       <r>  -12.5419    1.0000 </r>
       <r>  -12.5169    1.0000 </r>
       <r>  -12.4710    1.0000 </r>
       <r>   -7.0115    1.0000 </r>
       <r>   -6.9923    1.0000 </r>
       <r>   -6.9179    1.0000 </r>
       <r>   -6.8780    1.0000 </r>
       <r>   -6.8012    1.0000 </r>
       <r>   -6.6995    1.0000 </r>
       <r>   -6.5362    1.0000 </r>
       <r>   -6.2026    1.0000 </r>
       <r>   -6.1710    1.0000 </r>
       <r>   -6.1656    1.0000 </r>
       <r>   -6.1479    1.0000 </r>
       <r>   -6.1114    1.0000 </r>
       <r>   -1.4595    1.0000 </r>
       <r>   -1.1961    1.0000 </r>
       <r>   -1.0815    1.0000 </r>
       <r>   -0.8718    1.0000 </r>
       <r>   -0.8366    1.0000 </r>
       <r>   -0.7830    1.0000 </r>
       <r>   -0.7475    1.0000 </r>
       <r>   -0.6295    1.0000 </r>
       <r>   -0.5966    1.0000 </r>
       <r>   -0.5412    1.0000 </r>
       <r>   -0.5231    1.0000 </r>
       <r>   -0.4939    1.0000 </r>
       <r>    5.6943    0.0000 </r>
       <r>    5.7783    0.0000 </r>
       <r>    6.0127    0.0000 </r>
       <r>    6.0165    0.0000 </r>
       <r>    6.1558    0.0000 </r>
       <r>    6.3933    0.0000 </r>
       <r>    6.7471    0.0000 </r>
       <r>    7.0430    0.0000 </r>
      </set>
      <set comment="kpoint 20">
       <r>  -19.7104    1.0000 </r>
       <r>  -19.7071    1.0000 </r>
       <r>  -19.6842    1.0000 </r>
       <r>  -19.6469    1.0000 </r>
       <r>  -12.5711    1.0000 </r>
       <r>  -12.5566    1.0000 </r>
       <r>  -12.5173    1.0000 </r>
       <r>  -12.4615    1.0000 </r>
       <r>   -6.9952    1.0000 </r>
       <r>   -6.9739    1.0000 </r>
       <r>   -6.8886    1.0000 </r>
       <r>   -6.8455    1.0000 </r>
       <r>   -6.8036    1.0000 </r>
       <r>   -6.7442    1.0000 </r>
       <r>   -6.4502    1.0000 </r>
       <r>   -6.3046    1.0000 </r>
       <r>   -6.1978    1.0000 </r>
       <r>   -6.1837    1.0000 </r>
       <r>   -6.1522    1.0000 </r>
       <r>   -6.1172    1.0000 </r>
       <r>   -1.3880    1.0000 </r>
       <r>   -1.2200    1.0000 </r>
       <r>   -1.0423    1.0000 </r>
       <r>   -0.9275    1.0000 </r>
       <r>   -0.9140    1.0000 </r>
       <r>   -0.7456    1.0000 </r>
       <r>   -0.6945    1.0000 </r>
       <r>   -0.6677    1.0000 </r>
       <r>   -0.6105    1.0000 </r>
       <r>   -0.5702    1.0000 </r>
       <r>   -0.5501    1.0000 </r>
       <r>   -0.5051    1.0000 </r>
       <r>    5.8455    0.0000 </r>
       <r>    6.0032    0.0000 </r>
       <r>    6.0109    0.0000 </r>
       <r>    6.0196    0.0000 </r>
       <r>    6.2162    0.0000 </r>
       <r>    6.2953    0.0000 </r>
       <r>    6.7534    0.0000 </r>
       <r>    7.2030    0.0000 </r>
      </set>
      <set comment="kpoint 21">
       <r>  -19.7193    1.0000 </r>
       <r>  -19.6870    1.0000 </r>
       <r>  -19.6862    1.0000 </r>
       <r>  -19.6534    1.0000 </r>
       <r>  -12.5930    1.0000 </r>
       <r>  -12.5369    1.0000 </r>
       <r>  -12.5265    1.0000 </r>
       <r>  -12.4679    1.0000 </r>
       <r>   -7.0330    1.0000 </r>
       <r>   -7.0329    1.0000 </r>
       <r>   -6.9179    1.0000 </r>
       <r>   -6.9172    1.0000 </r>
       <r>   -6.8086    1.0000 </r>
       <r>   -6.6346    1.0000 </r>
       <r>   -6.6273    1.0000 </r>
       <r>   -6.1597    1.0000 </r>
       <r>   -6.1596    1.0000 </r>
       <r>   -6.1187    1.0000 </r>
       <r>   -6.1179    1.0000 </r>
       <r>   -6.0761    1.0000 </r>
       <r>   -1.5317    1.0000 </r>
       <r>   -1.1543    1.0000 </r>
       <r>   -1.1458    1.0000 </r>
       <r>   -0.8187    1.0000 </r>
       <r>   -0.8186    1.0000 </r>
       <r>   -0.7408    1.0000 </r>
       <r>   -0.7342    1.0000 </r>
       <r>   -0.6187    1.0000 </r>
       <r>   -0.6184    1.0000 </r>
       <r>   -0.5392    1.0000 </r>
       <r>   -0.5275    1.0000 </r>
       <r>   -0.4432    1.0000 </r>
       <r>    5.5408    0.0000 </r>
       <r>    5.6176    0.0000 </r>
       <r>    6.0072    0.0000 </r>
       <r>    6.0095    0.0000 </r>
       <r>    6.0114    0.0000 </r>
       <r>    6.5181    0.0000 </r>
       <r>    6.5253    0.0000 </r>
       <r>    7.1414    0.0000 </r>
      </set>
      <set comment="kpoint 22">
       <r>  -19.7890    1.0000 </r>
       <r>  -19.7268    1.0000 </r>
       <r>  -19.6407    1.0000 </r>
       <r>  -19.6043    1.0000 </r>
       <r>  -12.5891    1.0000 </r>
       <r>  -12.5553    1.0000 </r>
       <r>  -12.4531    1.0000 </r>
       <r>  -12.4068    1.0000 </r>
       <r>   -6.9892    1.0000 </r>
       <r>   -6.9892    1.0000 </r>
       <r>   -6.8568    1.0000 </r>
       <r>   -6.8568    1.0000 </r>
       <r>   -6.7656    1.0000 </r>
       <r>   -6.6686    1.0000 </r>
       <r>   -6.3495    1.0000 </r>
       <r>   -6.2813    1.0000 </r>
       <r>   -6.2812    1.0000 </r>
       <r>   -6.2403    1.0000 </r>
       <r>   -6.1730    1.0000 </r>
       <r>   -6.1729    1.0000 </r>
       <r>   -1.4419    1.0000 </r>
       <r>   -1.3237    1.0000 </r>
       <r>   -1.3237    1.0000 </r>
       <r>   -1.2763    1.0000 </r>
       <r>   -0.9505    1.0000 </r>
       <r>   -0.9505    1.0000 </r>
       <r>   -0.6897    1.0000 </r>
       <r>   -0.5962    1.0000 </r>
       <r>   -0.5962    1.0000 </r>
       <r>   -0.5304    1.0000 </r>
       <r>   -0.4153    1.0000 </r>
       <r>   -0.4153    1.0000 </r>
       <r>    5.0350    0.0000 </r>
       <r>    5.0796    0.0000 </r>
       <r>    5.2502    0.0000 </r>
       <r>    5.8643    0.0000 </r>
       <r>    6.1018    0.0000 </r>
       <r>    6.1689    0.0000 </r>
       <r>    6.8920    0.0000 </r>
       <r>    7.4998    0.0000 </r>
      </set>
      <set comment="kpoint 23">
       <r>  -19.7871    1.0000 </r>
       <r>  -19.7179    1.0000 </r>
       <r>  -19.6406    1.0000 </r>
       <r>  -19.6144    1.0000 </r>
       <r>  -12.5830    1.0000 </r>
       <r>  -12.5552    1.0000 </r>
       <r>  -12.4554    1.0000 </r>
       <r>  -12.4203    1.0000 </r>
       <r>   -6.9464    1.0000 </r>
       <r>   -6.9319    1.0000 </r>
       <r>   -6.8550    1.0000 </r>
       <r>   -6.8533    1.0000 </r>
       <r>   -6.8031    1.0000 </r>
       <r>   -6.6239    1.0000 </r>
       <r>   -6.3248    1.0000 </r>
       <r>   -6.3190    1.0000 </r>
       <r>   -6.3153    1.0000 </r>
       <r>   -6.2813    1.0000 </r>
       <r>   -6.2073    1.0000 </r>
       <r>   -6.1937    1.0000 </r>
       <r>   -1.4321    1.0000 </r>
       <r>   -1.2848    1.0000 </r>
       <r>   -1.2465    1.0000 </r>
       <r>   -1.1017    1.0000 </r>
       <r>   -1.0395    1.0000 </r>
       <r>   -0.9875    1.0000 </r>
       <r>   -0.7415    1.0000 </r>
       <r>   -0.6435    1.0000 </r>
       <r>   -0.5850    1.0000 </r>
       <r>   -0.5372    1.0000 </r>
       <r>   -0.4298    1.0000 </r>
       <r>   -0.4289    1.0000 </r>
       <r>    5.0900    0.0000 </r>
       <r>    5.1948    0.0000 </r>
       <r>    5.2088    0.0000 </r>
       <r>    6.0428    0.0000 </r>
       <r>    6.3429    0.0000 </r>
       <r>    6.4853    0.0000 </r>
       <r>    7.0199    0.0000 </r>
       <r>    7.1643    0.0000 </r>
      </set>
      <set comment="kpoint 24">
       <r>  -19.7733    1.0000 </r>
       <r>  -19.7014    1.0000 </r>
       <r>  -19.6491    1.0000 </r>
       <r>  -19.6343    1.0000 </r>
       <r>  -12.5639    1.0000 </r>
       <r>  -12.5539    1.0000 </r>
       <r>  -12.4703    1.0000 </r>
       <r>  -12.4477    1.0000 </r>
       <r>   -6.8563    1.0000 </r>
       <r>   -6.8549    1.0000 </r>
       <r>   -6.8175    1.0000 </r>
       <r>   -6.8064    1.0000 </r>
       <r>   -6.7982    1.0000 </r>
       <r>   -6.5920    1.0000 </r>
       <r>   -6.4157    1.0000 </r>
       <r>   -6.4113    1.0000 </r>
       <r>   -6.3264    1.0000 </r>
       <r>   -6.3168    1.0000 </r>
       <r>   -6.2659    1.0000 </r>
       <r>   -6.2614    1.0000 </r>
       <r>   -1.3134    1.0000 </r>
       <r>   -1.1835    1.0000 </r>
       <r>   -1.1249    1.0000 </r>
       <r>   -1.0986    1.0000 </r>
       <r>   -0.9911    1.0000 </r>
       <r>   -0.8996    1.0000 </r>
       <r>   -0.7558    1.0000 </r>
       <r>   -0.7519    1.0000 </r>
       <r>   -0.7217    1.0000 </r>
       <r>   -0.5442    1.0000 </r>
       <r>   -0.4843    1.0000 </r>
       <r>   -0.4580    1.0000 </r>
       <r>    5.3518    0.0000 </r>
       <r>    5.5049    0.0000 </r>
       <r>    5.6097    0.0000 </r>
       <r>    6.3870    0.0000 </r>
       <r>    6.6398    0.0000 </r>
       <r>    6.8934    0.0000 </r>
       <r>    6.8998    0.0000 </r>
       <r>    7.0840    0.0000 </r>
      </set>
      <set comment="kpoint 25">
       <r>  -19.7504    1.0000 </r>
       <r>  -19.6795    1.0000 </r>
       <r>  -19.6646    1.0000 </r>
       <r>  -19.6619    1.0000 </r>
       <r>  -12.5606    1.0000 </r>
       <r>  -12.5214    1.0000 </r>
       <r>  -12.4926    1.0000 </r>
       <r>  -12.4819    1.0000 </r>
       <r>   -6.9000    1.0000 </r>
       <r>   -6.7295    1.0000 </r>
       <r>   -6.7214    1.0000 </r>
       <r>   -6.6837    1.0000 </r>
       <r>   -6.6827    1.0000 </r>
       <r>   -6.5598    1.0000 </r>
       <r>   -6.5406    1.0000 </r>
       <r>   -6.5290    1.0000 </r>
       <r>   -6.4602    1.0000 </r>
       <r>   -6.3861    1.0000 </r>
       <r>   -6.3749    1.0000 </r>
       <r>   -6.2177    1.0000 </r>
       <r>   -1.1747    1.0000 </r>
       <r>   -1.0290    1.0000 </r>
       <r>   -1.0235    1.0000 </r>
       <r>   -0.9769    1.0000 </r>
       <r>   -0.9552    1.0000 </r>
       <r>   -0.9422    1.0000 </r>
       <r>   -0.9010    1.0000 </r>
       <r>   -0.8033    1.0000 </r>
       <r>   -0.7886    1.0000 </r>
       <r>   -0.5621    1.0000 </r>
       <r>   -0.5431    1.0000 </r>
       <r>   -0.4914    1.0000 </r>
       <r>    5.6248    0.0000 </r>
       <r>    6.0666    0.0000 </r>
       <r>    6.2832    0.0000 </r>
       <r>    6.8375    0.0000 </r>
       <r>    6.8674    0.0000 </r>
       <r>    6.9688    0.0000 </r>
       <r>    6.9785    0.0000 </r>
       <r>    7.1687    0.0000 </r>
      </set>
      <set comment="kpoint 26">
       <r>  -19.7224    1.0000 </r>
       <r>  -19.6944    1.0000 </r>
       <r>  -19.6837    1.0000 </r>
       <r>  -19.6552    1.0000 </r>
       <r>  -12.5504    1.0000 </r>
       <r>  -12.5234    1.0000 </r>
       <r>  -12.5086    1.0000 </r>
       <r>  -12.4817    1.0000 </r>
       <r>   -6.9140    1.0000 </r>
       <r>   -6.6837    1.0000 </r>
       <r>   -6.6418    1.0000 </r>
       <r>   -6.6098    1.0000 </r>
       <r>   -6.5937    1.0000 </r>
       <r>   -6.5810    1.0000 </r>
       <r>   -6.5630    1.0000 </r>
       <r>   -6.5416    1.0000 </r>
       <r>   -6.5076    1.0000 </r>
       <r>   -6.5020    1.0000 </r>
       <r>   -6.4909    1.0000 </r>
       <r>   -6.1792    1.0000 </r>
       <r>   -1.1111    1.0000 </r>
       <r>   -1.0645    1.0000 </r>
       <r>   -1.0615    1.0000 </r>
       <r>   -0.8934    1.0000 </r>
       <r>   -0.8845    1.0000 </r>
       <r>   -0.8759    1.0000 </r>
       <r>   -0.8182    1.0000 </r>
       <r>   -0.8108    1.0000 </r>
       <r>   -0.7998    1.0000 </r>
       <r>   -0.6571    1.0000 </r>
       <r>   -0.6472    1.0000 </r>
       <r>   -0.5205    1.0000 </r>
       <r>    5.8735    0.0000 </r>
       <r>    6.4777    0.0000 </r>
       <r>    6.7070    0.0000 </r>
       <r>    7.0458    0.0000 </r>
       <r>    7.1219    0.0000 </r>
       <r>    7.1372    0.0000 </r>
       <r>    7.1611    0.0000 </r>
       <r>    7.2712    0.0000 </r>
      </set>
      <set comment="kpoint 27">
       <r>  -19.7275    1.0000 </r>
       <r>  -19.7030    1.0000 </r>
       <r>  -19.6935    1.0000 </r>
       <r>  -19.6325    1.0000 </r>
       <r>  -12.5485    1.0000 </r>
       <r>  -12.5320    1.0000 </r>
       <r>  -12.5272    1.0000 </r>
       <r>  -12.4467    1.0000 </r>
       <r>   -6.8834    1.0000 </r>
       <r>   -6.8166    1.0000 </r>
       <r>   -6.7099    1.0000 </r>
       <r>   -6.6965    1.0000 </r>
       <r>   -6.6751    1.0000 </r>
       <r>   -6.6283    1.0000 </r>
       <r>   -6.5015    1.0000 </r>
       <r>   -6.4884    1.0000 </r>
       <r>   -6.4310    1.0000 </r>
       <r>   -6.4199    1.0000 </r>
       <r>   -6.3678    1.0000 </r>
       <r>   -6.1609    1.0000 </r>
       <r>   -1.2033    1.0000 </r>
       <r>   -1.1558    1.0000 </r>
       <r>   -1.0603    1.0000 </r>
       <r>   -1.0073    1.0000 </r>
       <r>   -0.8802    1.0000 </r>
       <r>   -0.8763    1.0000 </r>
       <r>   -0.7873    1.0000 </r>
       <r>   -0.7323    1.0000 </r>
       <r>   -0.6696    1.0000 </r>
       <r>   -0.6685    1.0000 </r>
       <r>   -0.6347    1.0000 </r>
       <r>   -0.5351    1.0000 </r>
       <r>    5.9632    0.0000 </r>
       <r>    6.4434    0.0000 </r>
       <r>    6.4743    0.0000 </r>
       <r>    6.4788    0.0000 </r>
       <r>    6.5367    0.0000 </r>
       <r>    6.6408    0.0000 </r>
       <r>    6.7970    0.0000 </r>
       <r>    6.8925    0.0000 </r>
      </set>
      <set comment="kpoint 28">
       <r>  -19.7569    1.0000 </r>
       <r>  -19.7183    1.0000 </r>
       <r>  -19.6686    1.0000 </r>
       <r>  -19.6145    1.0000 </r>
       <r>  -12.5629    1.0000 </r>
       <r>  -12.5529    1.0000 </r>
       <r>  -12.4959    1.0000 </r>
       <r>  -12.4215    1.0000 </r>
       <r>   -6.9200    1.0000 </r>
       <r>   -6.8441    1.0000 </r>
       <r>   -6.8183    1.0000 </r>
       <r>   -6.7672    1.0000 </r>
       <r>   -6.7399    1.0000 </r>
       <r>   -6.7375    1.0000 </r>
       <r>   -6.4462    1.0000 </r>
       <r>   -6.3788    1.0000 </r>
       <r>   -6.3077    1.0000 </r>
       <r>   -6.3007    1.0000 </r>
       <r>   -6.2890    1.0000 </r>
       <r>   -6.1651    1.0000 </r>
       <r>   -1.3023    1.0000 </r>
       <r>   -1.2786    1.0000 </r>
       <r>   -1.1703    1.0000 </r>
       <r>   -1.0984    1.0000 </r>
       <r>   -0.9953    1.0000 </r>
       <r>   -0.8177    1.0000 </r>
       <r>   -0.8145    1.0000 </r>
       <r>   -0.6878    1.0000 </r>
       <r>   -0.5493    1.0000 </r>
       <r>   -0.5440    1.0000 </r>
       <r>   -0.5437    1.0000 </r>
       <r>   -0.5389    1.0000 </r>
       <r>    5.7479    0.0000 </r>
       <r>    5.8647    0.0000 </r>
       <r>    5.9476    0.0000 </r>
       <r>    5.9518    0.0000 </r>
       <r>    6.1502    0.0000 </r>
       <r>    6.1995    0.0000 </r>
       <r>    6.6425    0.0000 </r>
       <r>    7.1983    0.0000 </r>
      </set>
      <set comment="kpoint 29">
       <r>  -19.7785    1.0000 </r>
       <r>  -19.7268    1.0000 </r>
       <r>  -19.6503    1.0000 </r>
       <r>  -19.6045    1.0000 </r>
       <r>  -12.5794    1.0000 </r>
       <r>  -12.5576    1.0000 </r>
       <r>  -12.4676    1.0000 </r>
       <r>  -12.4078    1.0000 </r>
       <r>   -6.9800    1.0000 </r>
       <r>   -6.9601    1.0000 </r>
       <r>   -6.8253    1.0000 </r>
       <r>   -6.8166    1.0000 </r>
       <r>   -6.7498    1.0000 </r>
       <r>   -6.7326    1.0000 </r>
       <r>   -6.3921    1.0000 </r>
       <r>   -6.3037    1.0000 </r>
       <r>   -6.2720    1.0000 </r>
       <r>   -6.2165    1.0000 </r>
       <r>   -6.2101    1.0000 </r>
       <r>   -6.1911    1.0000 </r>
       <r>   -1.3654    1.0000 </r>
       <r>   -1.3439    1.0000 </r>
       <r>   -1.3349    1.0000 </r>
       <r>   -1.2365    1.0000 </r>
       <r>   -0.9449    1.0000 </r>
       <r>   -0.8896    1.0000 </r>
       <r>   -0.6654    1.0000 </r>
       <r>   -0.6153    1.0000 </r>
       <r>   -0.5923    1.0000 </r>
       <r>   -0.5646    1.0000 </r>
       <r>   -0.4548    1.0000 </r>
       <r>   -0.4545    1.0000 </r>
       <r>    5.2738    0.0000 </r>
       <r>    5.3394    0.0000 </r>
       <r>    5.5017    0.0000 </r>
       <r>    5.8913    0.0000 </r>
       <r>    5.9886    0.0000 </r>
       <r>    6.0259    0.0000 </r>
       <r>    6.7398    0.0000 </r>
       <r>    7.4716    0.0000 </r>
      </set>
      <set comment="kpoint 30">
       <r>  -19.7781    1.0000 </r>
       <r>  -19.7171    1.0000 </r>
       <r>  -19.6504    1.0000 </r>
       <r>  -19.6136    1.0000 </r>
       <r>  -12.5745    1.0000 </r>
       <r>  -12.5573    1.0000 </r>
       <r>  -12.4705    1.0000 </r>
       <r>  -12.4199    1.0000 </r>
       <r>   -6.9672    1.0000 </r>
       <r>   -6.8805    1.0000 </r>
       <r>   -6.8756    1.0000 </r>
       <r>   -6.7952    1.0000 </r>
       <r>   -6.7647    1.0000 </r>
       <r>   -6.6908    1.0000 </r>
       <r>   -6.3956    1.0000 </r>
       <r>   -6.3115    1.0000 </r>
       <r>   -6.3103    1.0000 </r>
       <r>   -6.2629    1.0000 </r>
       <r>   -6.2576    1.0000 </r>
       <r>   -6.1602    1.0000 </r>
       <r>   -1.3441    1.0000 </r>
       <r>   -1.3199    1.0000 </r>
       <r>   -1.2621    1.0000 </r>
       <r>   -1.1006    1.0000 </r>
       <r>   -0.9968    1.0000 </r>
       <r>   -0.9574    1.0000 </r>
       <r>   -0.6749    1.0000 </r>
       <r>   -0.6368    1.0000 </r>
       <r>   -0.6316    1.0000 </r>
       <r>   -0.5770    1.0000 </r>
       <r>   -0.4657    1.0000 </r>
       <r>   -0.4410    1.0000 </r>
       <r>    5.2594    0.0000 </r>
       <r>    5.3716    0.0000 </r>
       <r>    5.5084    0.0000 </r>
       <r>    6.0217    0.0000 </r>
       <r>    6.2340    0.0000 </r>
       <r>    6.2724    0.0000 </r>
       <r>    6.9156    0.0000 </r>
       <r>    7.2184    0.0000 </r>
      </set>
      <set comment="kpoint 31">
       <r>  -19.7668    1.0000 </r>
       <r>  -19.7002    1.0000 </r>
       <r>  -19.6584    1.0000 </r>
       <r>  -19.6318    1.0000 </r>
       <r>  -12.5643    1.0000 </r>
       <r>  -12.5497    1.0000 </r>
       <r>  -12.4849    1.0000 </r>
       <r>  -12.4453    1.0000 </r>
       <r>   -6.9130    1.0000 </r>
       <r>   -6.8770    1.0000 </r>
       <r>   -6.8554    1.0000 </r>
[...]
       <r>   -0.9622    1.0000 </r>
       <r>   -0.9104    1.0000 </r>
       <r>   -0.8474    1.0000 </r>
       <r>   -0.7095    1.0000 </r>
       <r>   -0.5897    1.0000 </r>
       <r>   -0.5473    1.0000 </r>
       <r>   -0.5151    1.0000 </r>
       <r>   -0.4913    1.0000 </r>
       <r>    5.5010    0.0000 </r>
       <r>    5.7553    0.0000 </r>
       <r>    5.9888    0.0000 </r>
       <r>    6.1431    0.0000 </r>
       <r>    6.3517    0.0000 </r>
       <r>    6.4423    0.0000 </r>
       <r>    6.8254    0.0000 </r>
       <r>    6.9818    0.0000 </r>
      </set>
      <set comment="kpoint 92">
       <r>  -19.7543    1.0000 </r>
       <r>  -19.6906    1.0000 </r>
       <r>  -19.6693    1.0000 </r>
       <r>  -19.6402    1.0000 </r>
       <r>  -12.5694    1.0000 </r>
       <r>  -12.5330    1.0000 </r>
       <r>  -12.5051    1.0000 </r>
       <r>  -12.4579    1.0000 </r>
       <r>   -6.9200    1.0000 </r>
       <r>   -6.9170    1.0000 </r>
       <r>   -6.8904    1.0000 </r>
       <r>   -6.7314    1.0000 </r>
       <r>   -6.6210    1.0000 </r>
       <r>   -6.5937    1.0000 </r>
       <r>   -6.5777    1.0000 </r>
       <r>   -6.5014    1.0000 </r>
       <r>   -6.3524    1.0000 </r>
       <r>   -6.2651    1.0000 </r>
       <r>   -6.2222    1.0000 </r>
       <r>   -6.1244    1.0000 </r>
       <r>   -1.1418    1.0000 </r>
       <r>   -1.1386    1.0000 </r>
       <r>   -1.1244    1.0000 </r>
       <r>   -1.1158    1.0000 </r>
       <r>   -1.0263    1.0000 </r>
       <r>   -0.9506    1.0000 </r>
       <r>   -0.7738    1.0000 </r>
       <r>   -0.7269    1.0000 </r>
       <r>   -0.5693    1.0000 </r>
       <r>   -0.5322    1.0000 </r>
       <r>   -0.5244    1.0000 </r>
       <r>   -0.5039    1.0000 </r>
       <r>    5.4982    0.0000 </r>
       <r>    5.9882    0.0000 </r>
       <r>    6.0064    0.0000 </r>
       <r>    6.4704    0.0000 </r>
       <r>    6.5337    0.0000 </r>
       <r>    6.6623    0.0000 </r>
       <r>    6.7193    0.0000 </r>
       <r>    6.7376    0.0000 </r>
      </set>
      <set comment="kpoint 93">
       <r>  -19.7722    1.0000 </r>
       <r>  -19.7232    1.0000 </r>
       <r>  -19.6558    1.0000 </r>
       <r>  -19.6081    1.0000 </r>
       <r>  -12.5730    1.0000 </r>
       <r>  -12.5580    1.0000 </r>
       <r>  -12.4775    1.0000 </r>
       <r>  -12.4126    1.0000 </r>
       <r>   -6.9804    1.0000 </r>
       <r>   -6.8975    1.0000 </r>
       <r>   -6.8618    1.0000 </r>
       <r>   -6.7722    1.0000 </r>
       <r>   -6.7562    1.0000 </r>
       <r>   -6.7252    1.0000 </r>
       <r>   -6.4255    1.0000 </r>
       <r>   -6.3252    1.0000 </r>
       <r>   -6.3132    1.0000 </r>
       <r>   -6.2531    1.0000 </r>
       <r>   -6.1879    1.0000 </r>
       <r>   -6.1706    1.0000 </r>
       <r>   -1.3543    1.0000 </r>
       <r>   -1.3034    1.0000 </r>
       <r>   -1.2854    1.0000 </r>
       <r>   -1.1803    1.0000 </r>
       <r>   -0.9608    1.0000 </r>
       <r>   -0.8925    1.0000 </r>
       <r>   -0.7446    1.0000 </r>
       <r>   -0.6204    1.0000 </r>
       <r>   -0.5647    1.0000 </r>
       <r>   -0.5629    1.0000 </r>
       <r>   -0.4881    1.0000 </r>
       <r>   -0.4536    1.0000 </r>
       <r>    5.3462    0.0000 </r>
       <r>    5.5387    0.0000 </r>
       <r>    5.6639    0.0000 </r>
       <r>    5.9329    0.0000 </r>
       <r>    6.0210    0.0000 </r>
       <r>    6.0770    0.0000 </r>
       <r>    6.7294    0.0000 </r>
       <r>    7.3736    0.0000 </r>
      </set>
     </set>
    </set>
   </array>
  </eigenvalues>
  <separator name="orbital magnetization" >
   <v name="MAGDIPOLOUT">      0.00000000      0.00000000      0.00000000</v>
  </separator>
  <dos>
   <i name="efermi">     -0.31824583 </i>
   <total>
    <array>
     <dimension dim="1">gridpoints</dimension>
     <dimension dim="2">spin</dimension>
     <field>energy</field>
     <field>total</field>
     <field>integrated</field>
     <set>
      <set comment="spin 1">
       <r>   -21.1611     0.0000     0.0000 </r>
       <r>   -21.0610     0.0000     0.0000 </r>
       <r>   -20.9609     0.0000     0.0000 </r>
       <r>   -20.8608     0.0000     0.0000 </r>
       <r>   -20.7608     0.0000     0.0000 </r>
       <r>   -20.6607     0.0000     0.0000 </r>
       <r>   -20.5606     0.0000     0.0000 </r>
       <r>   -20.4605     0.0000     0.0000 </r>
       <r>   -20.3604     0.0000     0.0000 </r>
       <r>   -20.2603     0.0000     0.0000 </r>
       <r>   -20.1602     0.0000     0.0000 </r>
       <r>   -20.0602     0.0000     0.0000 </r>
       <r>   -19.9601     0.0000     0.0000 </r>
       <r>   -19.8600     0.0000     0.0000 </r>
       <r>   -19.7599     4.4560     0.4460 </r>
       <r>   -19.6598    49.3432     5.8950 </r>
       <r>   -19.5597     9.7402     8.0000 </r>
       <r>   -19.4596     0.0000     8.0000 </r>
       <r>   -19.3596     0.0000     8.0000 </r>
       <r>   -19.2595     0.0000     8.0000 </r>
       <r>   -19.1594     0.0000     8.0000 </r>
       <r>   -19.0593     0.0000     8.0000 </r>
       <r>   -18.9592     0.0000     8.0000 </r>
       <r>   -18.8591     0.0000     8.0000 </r>
       <r>   -18.7590     0.0000     8.0000 </r>
       <r>   -18.6590     0.0000     8.0000 </r>
       <r>   -18.5589     0.0000     8.0000 </r>
       <r>   -18.4588     0.0000     8.0000 </r>
       <r>   -18.3587     0.0000     8.0000 </r>
       <r>   -18.2586     0.0000     8.0000 </r>
       <r>   -18.1585     0.0000     8.0000 </r>
       <r>   -18.0584     0.0000     8.0000 </r>
       <r>   -17.9584     0.0000     8.0000 </r>
       <r>   -17.8583     0.0000     8.0000 </r>
       <r>   -17.7582     0.0000     8.0000 </r>
       <r>   -17.6581     0.0000     8.0000 </r>
       <r>   -17.5580     0.0000     8.0000 </r>
       <r>   -17.4579     0.0000     8.0000 </r>
       <r>   -17.3578     0.0000     8.0000 </r>
       <r>   -17.2578     0.0000     8.0000 </r>
       <r>   -17.1577     0.0000     8.0000 </r>
       <r>   -17.0576     0.0000     8.0000 </r>
       <r>   -16.9575     0.0000     8.0000 </r>
       <r>   -16.8574     0.0000     8.0000 </r>
       <r>   -16.7573     0.0000     8.0000 </r>
       <r>   -16.6572     0.0000     8.0000 </r>
       <r>   -16.5572     0.0000     8.0000 </r>
       <r>   -16.4571     0.0000     8.0000 </r>
       <r>   -16.3570     0.0000     8.0000 </r>
       <r>   -16.2569     0.0000     8.0000 </r>
       <r>   -16.1568     0.0000     8.0000 </r>
       <r>   -16.0567     0.0000     8.0000 </r>
       <r>   -15.9566     0.0000     8.0000 </r>
       <r>   -15.8566     0.0000     8.0000 </r>
       <r>   -15.7565     0.0000     8.0000 </r>
       <r>   -15.6564     0.0000     8.0000 </r>
       <r>   -15.5563     0.0000     8.0000 </r>
       <r>   -15.4562     0.0000     8.0000 </r>
       <r>   -15.3561     0.0000     8.0000 </r>
       <r>   -15.2560     0.0000     8.0000 </r>
       <r>   -15.1560     0.0000     8.0000 </r>
       <r>   -15.0559     0.0000     8.0000 </r>
       <r>   -14.9558     0.0000     8.0000 </r>
       <r>   -14.8557     0.0000     8.0000 </r>
       <r>   -14.7556     0.0000     8.0000 </r>
       <r>   -14.6555     0.0000     8.0000 </r>
       <r>   -14.5554     0.0000     8.0000 </r>
       <r>   -14.4554     0.0000     8.0000 </r>
       <r>   -14.3553     0.0000     8.0000 </r>
       <r>   -14.2552     0.0000     8.0000 </r>
       <r>   -14.1551     0.0000     8.0000 </r>
       <r>   -14.0550     0.0000     8.0000 </r>
       <r>   -13.9549     0.0000     8.0000 </r>
       <r>   -13.8548     0.0000     8.0000 </r>
       <r>   -13.7548     0.0000     8.0000 </r>
       <r>   -13.6547     0.0000     8.0000 </r>
       <r>   -13.5546     0.0000     8.0000 </r>
       <r>   -13.4545     0.0000     8.0000 </r>
       <r>   -13.3544     0.0000     8.0000 </r>
       <r>   -13.2543     0.0000     8.0000 </r>
       <r>   -13.1542     0.0000     8.0000 </r>
       <r>   -13.0542     0.0000     8.0000 </r>
       <r>   -12.9541     0.0000     8.0000 </r>
       <r>   -12.8540     0.0000     8.0000 </r>
       <r>   -12.7539     0.0000     8.0000 </r>
       <r>   -12.6538     0.0000     8.0000 </r>
       <r>   -12.5537    21.4632    10.1482 </r>
       <r>   -12.4536    35.9746    15.0384 </r>
       <r>   -12.3536     4.9326    16.0000 </r>
       <r>   -12.2535     0.0000    16.0000 </r>
       <r>   -12.1534     0.0000    16.0000 </r>
       <r>   -12.0533     0.0000    16.0000 </r>
       <r>   -11.9532     0.0000    16.0000 </r>
       <r>   -11.8531     0.0000    16.0000 </r>
       <r>   -11.7530     0.0000    16.0000 </r>
       <r>   -11.6530     0.0000    16.0000 </r>
       <r>   -11.5529     0.0000    16.0000 </r>
       <r>   -11.4528     0.0000    16.0000 </r>
       <r>   -11.3527     0.0000    16.0000 </r>
       <r>   -11.2526     0.0000    16.0000 </r>
       <r>   -11.1525     0.0000    16.0000 </r>
       <r>   -11.0524     0.0000    16.0000 </r>
       <r>   -10.9524     0.0000    16.0000 </r>
       <r>   -10.8523     0.0000    16.0000 </r>
       <r>   -10.7522     0.0000    16.0000 </r>
       <r>   -10.6521     0.0000    16.0000 </r>
       <r>   -10.5520     0.0000    16.0000 </r>
       <r>   -10.4519     0.0000    16.0000 </r>
       <r>   -10.3518     0.0000    16.0000 </r>
       <r>   -10.2518     0.0000    16.0000 </r>
       <r>   -10.1517     0.0000    16.0000 </r>
       <r>   -10.0516     0.0000    16.0000 </r>
       <r>    -9.9515     0.0000    16.0000 </r>
       <r>    -9.8514     0.0000    16.0000 </r>
       <r>    -9.7513     0.0000    16.0000 </r>
       <r>    -9.6512     0.0000    16.0000 </r>
       <r>    -9.5512     0.0000    16.0000 </r>
       <r>    -9.4511     0.0000    16.0000 </r>
       <r>    -9.3510     0.0000    16.0000 </r>
       <r>    -9.2509     0.0000    16.0000 </r>
       <r>    -9.1508     0.0000    16.0000 </r>
       <r>    -9.0507     0.0000    16.0000 </r>
       <r>    -8.9506     0.0000    16.0000 </r>
       <r>    -8.8506     0.0000    16.0000 </r>
       <r>    -8.7505     0.0000    16.0000 </r>
       <r>    -8.6504     0.0000    16.0000 </r>
       <r>    -8.5503     0.0000    16.0000 </r>
       <r>    -8.4502     0.0000    16.0000 </r>
       <r>    -8.3501     0.0000    16.0000 </r>
       <r>    -8.2500     0.0000    16.0000 </r>
       <r>    -8.1500     0.0000    16.0000 </r>
       <r>    -8.0499     0.0000    16.0000 </r>
       <r>    -7.9498     0.0000    16.0000 </r>
       <r>    -7.8497     0.0000    16.0000 </r>
       <r>    -7.7496     0.0000    16.0000 </r>
       <r>    -7.6495     0.0000    16.0000 </r>
       <r>    -7.5494     0.0000    16.0000 </r>
       <r>    -7.4494     0.0000    16.0000 </r>
       <r>    -7.3493     0.0000    16.0000 </r>
       <r>    -7.2492     0.0000    16.0000 </r>
       <r>    -7.1491     0.0000    16.0000 </r>
       <r>    -7.0490     0.0019    16.0002 </r>
       <r>    -6.9489    10.1228    17.0257 </r>
       <r>    -6.8488    31.9597    20.6988 </r>
       <r>    -6.7488    25.7320    23.9881 </r>
       <r>    -6.6487    18.5003    26.3393 </r>
       <r>    -6.5486    18.7894    28.5244 </r>
       <r>    -6.4485    15.6280    30.4267 </r>
       <r>    -6.3484    16.0321    32.6171 </r>
       <r>    -6.2483    27.7889    35.7564 </r>
       <r>    -6.1482    25.9378    38.9899 </r>
       <r>    -6.0482     5.4325    40.0000 </r>
       <r>    -5.9481     0.0000    40.0000 </r>
       <r>    -5.8480     0.0000    40.0000 </r>
       <r>    -5.7479     0.0000    40.0000 </r>
       <r>    -5.6478     0.0000    40.0000 </r>
       <r>    -5.5477     0.0000    40.0000 </r>
       <r>    -5.4476     0.0000    40.0000 </r>
       <r>    -5.3476     0.0000    40.0000 </r>
       <r>    -5.2475     0.0000    40.0000 </r>
       <r>    -5.1474     0.0000    40.0000 </r>
       <r>    -5.0473     0.0000    40.0000 </r>
       <r>    -4.9472     0.0000    40.0000 </r>
       <r>    -4.8471     0.0000    40.0000 </r>
       <r>    -4.7470     0.0000    40.0000 </r>
       <r>    -4.6470     0.0000    40.0000 </r>
       <r>    -4.5469     0.0000    40.0000 </r>
       <r>    -4.4468     0.0000    40.0000 </r>
       <r>    -4.3467     0.0000    40.0000 </r>
       <r>    -4.2466     0.0000    40.0000 </r>
       <r>    -4.1465     0.0000    40.0000 </r>
       <r>    -4.0464     0.0000    40.0000 </r>
       <r>    -3.9464     0.0000    40.0000 </r>
       <r>    -3.8463     0.0000    40.0000 </r>
       <r>    -3.7462     0.0000    40.0000 </r>
       <r>    -3.6461     0.0000    40.0000 </r>
       <r>    -3.5460     0.0000    40.0000 </r>
       <r>    -3.4459     0.0000    40.0000 </r>
       <r>    -3.3458     0.0000    40.0000 </r>
       <r>    -3.2458     0.0000    40.0000 </r>
       <r>    -3.1457     0.0000    40.0000 </r>
       <r>    -3.0456     0.0000    40.0000 </r>
       <r>    -2.9455     0.0000    40.0000 </r>
       <r>    -2.8454     0.0000    40.0000 </r>
       <r>    -2.7453     0.0000    40.0000 </r>
       <r>    -2.6452     0.0000    40.0000 </r>
       <r>    -2.5452     0.0000    40.0000 </r>
       <r>    -2.4451     0.0000    40.0000 </r>
       <r>    -2.3450     0.0000    40.0000 </r>
       <r>    -2.2449     0.0000    40.0000 </r>
       <r>    -2.1448     0.0000    40.0000 </r>
       <r>    -2.0447     0.0000    40.0000 </r>
       <r>    -1.9446     0.0000    40.0000 </r>
       <r>    -1.8446     0.0000    40.0000 </r>
       <r>    -1.7445     0.0000    40.0000 </r>
       <r>    -1.6444     0.0000    40.0000 </r>
       <r>    -1.5443     0.0047    40.0005 </r>
       <r>    -1.4442     1.1135    40.1239 </r>
       <r>    -1.3441     4.9132    40.7043 </r>
       <r>    -1.2440     9.5393    41.7798 </r>
       <r>    -1.1440    13.5512    43.4188 </r>
       <r>    -1.0439    25.4650    46.6488 </r>
       <r>    -0.9438    19.9305    49.4449 </r>
       <r>    -0.8437    17.2203    51.4111 </r>
       <r>    -0.7436    20.7321    53.9000 </r>
       <r>    -0.6435    20.4399    56.3958 </r>
       <r>    -0.5434    35.4774    60.5384 </r>
       <r>    -0.4434    18.2543    63.7648 </r>
       <r>    -0.3433     0.9365    64.0000 </r>
       <r>    -0.2432     0.0000    64.0000 </r>
       <r>    -0.1431     0.0000    64.0000 </r>
       <r>    -0.0430     0.0000    64.0000 </r>
       <r>     0.0571     0.0000    64.0000 </r>
       <r>     0.1572     0.0000    64.0000 </r>
       <r>     0.2572     0.0000    64.0000 </r>
       <r>     0.3573     0.0000    64.0000 </r>
       <r>     0.4574     0.0000    64.0000 </r>
       <r>     0.5575     0.0000    64.0000 </r>
       <r>     0.6576     0.0000    64.0000 </r>
       <r>     0.7577     0.0000    64.0000 </r>
       <r>     0.8578     0.0000    64.0000 </r>
       <r>     0.9578     0.0000    64.0000 </r>
       <r>     1.0579     0.0000    64.0000 </r>
       <r>     1.1580     0.0000    64.0000 </r>
       <r>     1.2581     0.0000    64.0000 </r>
       <r>     1.3582     0.0000    64.0000 </r>
       <r>     1.4583     0.0000    64.0000 </r>
       <r>     1.5584     0.0000    64.0000 </r>
       <r>     1.6584     0.0000    64.0000 </r>
       <r>     1.7585     0.0000    64.0000 </r>
       <r>     1.8586     0.0000    64.0000 </r>
       <r>     1.9587     0.0000    64.0000 </r>
       <r>     2.0588     0.0000    64.0000 </r>
       <r>     2.1589     0.0000    64.0000 </r>
       <r>     2.2590     0.0000    64.0000 </r>
       <r>     2.3590     0.0000    64.0000 </r>
       <r>     2.4591     0.0000    64.0000 </r>
       <r>     2.5592     0.0000    64.0000 </r>
       <r>     2.6593     0.0000    64.0000 </r>
       <r>     2.7594     0.0000    64.0000 </r>
       <r>     2.8595     0.0000    64.0000 </r>
       <r>     2.9596     0.0000    64.0000 </r>
       <r>     3.0596     0.0000    64.0000 </r>
       <r>     3.1597     0.0000    64.0000 </r>
       <r>     3.2598     0.0000    64.0000 </r>
       <r>     3.3599     0.0000    64.0000 </r>
       <r>     3.4600     0.0000    64.0000 </r>
       <r>     3.5601     0.0000    64.0000 </r>
       <r>     3.6602     0.0000    64.0000 </r>
       <r>     3.7602     0.0000    64.0000 </r>
       <r>     3.8603     0.0000    64.0000 </r>
       <r>     3.9604     0.0000    64.0000 </r>
       <r>     4.0605     0.0000    64.0000 </r>
       <r>     4.1606     0.0000    64.0000 </r>
       <r>     4.2607     0.0000    64.0000 </r>
       <r>     4.3608     0.0000    64.0000 </r>
       <r>     4.4608     0.0000    64.0000 </r>
       <r>     4.5609     0.0000    64.0000 </r>
       <r>     4.6610     0.0000    64.0000 </r>
       <r>     4.7611     0.0000    64.0000 </r>
       <r>     4.8612     0.0624    64.0062 </r>
       <r>     4.9613     0.0000    64.0063 </r>
       <r>     5.0614     0.5002    64.0563 </r>
       <r>     5.1614     0.8624    64.1551 </r>
       <r>     5.2615     1.0428    64.2981 </r>
       <r>     5.3616     1.3703    64.4809 </r>
       <r>     5.4617     1.3323    64.6396 </r>
       <r>     5.5618     2.5924    64.9157 </r>
       <r>     5.6619     3.4401    65.3068 </r>
       <r>     5.7620     5.8686    65.9811 </r>
       <r>     5.8620     4.0025    66.5194 </r>
       <r>     5.9621     9.4197    67.6241 </r>
       <r>     6.0622     9.0235    68.8344 </r>
       <r>     6.1623     9.1603    69.8731 </r>
       <r>     6.2624     8.4677    70.9162 </r>
       <r>     6.3625     6.7729    71.7967 </r>
       <r>     6.4626     9.3054    72.8877 </r>
       <r>     6.5626     9.4865    73.9807 </r>
       <r>     6.6627     8.1865    75.0507 </r>
       <r>     6.7628    11.8388    76.4412 </r>
       <r>     6.8629     9.4060    77.7478 </r>
       <r>     6.9630     6.8865    78.5705 </r>
       <r>     7.0631     3.7711    79.1462 </r>
       <r>     7.1632     3.1978    79.5138 </r>
       <r>     7.2632     2.2044    79.8519 </r>
       <r>     7.3633     0.2590    79.9509 </r>
       <r>     7.4634     0.0310    79.9656 </r>
       <r>     7.5635     0.1249    80.0000 </r>
       <r>     7.6636     0.0000    80.0000 </r>
       <r>     7.7637     0.0000    80.0000 </r>
       <r>     7.8638     0.0000    80.0000 </r>
       <r>     7.9638     0.0000    80.0000 </r>
       <r>     8.0639     0.0000    80.0000 </r>
       <r>     8.1640     0.0000    80.0000 </r>
       <r>     8.2641     0.0000    80.0000 </r>
       <r>     8.3642     0.0000    80.0000 </r>
       <r>     8.4643     0.0000    80.0000 </r>
       <r>     8.5644     0.0000    80.0000 </r>
       <r>     8.6644     0.0000    80.0000 </r>
       <r>     8.7645     0.0000    80.0000 </r>
       <r>     8.8646     0.0000    80.0000 </r>
      </set>
     </set>
    </array>
   </total>
  </dos>
 </calculation>
 <structure name="finalpos" >
  <crystal>
   <varray name="basis" >
    <v>       4.14369834       4.14369834       0.00000000 </v>
    <v>       4.14369834      -4.14369834       0.00000000 </v>
    <v>       0.00000000       4.14369834      -8.28739668 </v>
   </varray>
   <i name="volume">    284.59311253 </i>
   <varray name="rec_basis" >
    <v>       0.12066515       0.12066515       0.06033258 </v>
    <v>       0.12066515      -0.12066515      -0.06033258 </v>
    <v>       0.00000000       0.00000000      -0.12066515 </v>
   </varray>
  </crystal>
  <varray name="positions" >
   <v>       0.00000000       0.00000000       0.00107926 </v>
   <v>       0.50000000       0.50000000       0.00000000 </v>
   <v>       0.25000000       0.75000000       0.50000000 </v>
   <v>       0.75000000       0.25000000       0.50000000 </v>
   <v>       0.62500000       0.87500000       0.75000000 </v>
   <v>       0.12500000       0.37500000       0.75000000 </v>
   <v>       0.87500000       0.62500000       0.25000000 </v>
   <v>       0.37500000       0.12500000       0.25000000 </v>
  </varray>
 </structure>
</modeling>
