<?xml version="1.0" encoding="ISO-8859-1"?>
<modeling>
 <generator>
  <i name="program" type="string">vasp </i>
  <i name="version" type="string">6.4.3  </i>
  <i name="subversion" type="string">19Mar24 (build Jun 20 2024 15:56:09) complex                          parallel </i>
  <i name="platform" type="string">LinuxNV_CrayMPICH </i>
  <i name="date" type="string">2025 01 07 </i>
  <i name="time" type="string">18:41:07 </i>
 </generator>
 <incar>
  <i type="string" name="PREC">Accurate</i>
  <i type="int" name="IBRION">    -1</i>
  <i name="EDIFF">      0.00000001</i>
  <i type="int" name="NSW">     0</i>
  <i name="ENCUT">    500.00000000</i>
  <i type="logical" name="LREAL"> F  </i>
  <i type="int" name="ISMEAR">     0</i>
  <i name="SIGMA">      0.01000000</i>
  <i type="logical" name="LWAVE"> F  </i>
  <i type="logical" name="LCHARG"> F  </i>
 </incar>
 <primitive_cell>
  <structure name="primitive_cell" >
   <crystal>
    <varray name="basis" >
     <v>       4.14369834       4.14369834       4.14369834 </v>
     <v>       4.14369834      -4.14369834      -4.14369834 </v>
     <v>       0.00000000       4.14369834      -4.14369834 </v>
    </varray>
    <i name="volume">    284.59311253 </i>
    <varray name="rec_basis" >
     <v>       0.12066515       0.06033258       0.06033258 </v>
     <v>       0.12066515      -0.06033258      -0.06033258 </v>
     <v>      -0.00000000       0.12066515      -0.12066515 </v>
    </varray>
   </crystal>
   <varray name="positions" >
    <v>       0.00000000       0.00000000       0.00000000 </v>
    <v>       0.50000000       0.50000000       0.00000000 </v>
    <v>       0.25000000       0.75000000       0.50000000 </v>
    <v>       0.75000000       0.25000000       0.50000000 </v>
    <v>       0.50107926       0.00000000       0.00107926 </v>
    <v>       0.00000000       0.50000000       0.00000000 </v>
    <v>       0.75000000       0.75000000       0.50000000 </v>
    <v>       0.25000000       0.25000000       0.50000000 </v>
   </varray>
  </structure>
  <varray name="primitive_index" >
   <v type="int" >        1 </v>
   <v type="int" >        2 </v>
   <v type="int" >        3 </v>
   <v type="int" >        4 </v>
   <v type="int" >        5 </v>
   <v type="int" >        6 </v>
   <v type="int" >        7 </v>
   <v type="int" >        8 </v>
  </varray>
 </primitive_cell>
 <kpoints>
  <generation param="Gamma">
   <v type="int" name="divisions">       6        6        7 </v>
   <v name="usershift">      0.00000000       0.00000000       0.00000000 </v>
   <v name="genvec1">      0.16666667       0.00000000      -0.00000000 </v>
   <v name="genvec2">      0.00000000       0.16666667      -0.00000000 </v>
   <v name="genvec3">     -0.00000000      -0.00000000       0.14285714 </v>
   <v name="shift">      0.00000000       0.00000000       0.00000000 </v>
  </generation>
  <varray name="kpointlist" >
   <v>       0.00000000       0.00000000       0.00000000 </v>
   <v>       0.16666667       0.00000000       0.00000000 </v>
   <v>       0.00000000       0.16666667       0.00000000 </v>
   <v>       0.33333333       0.00000000       0.00000000 </v>
   <v>       0.00000000       0.33333333       0.00000000 </v>
   <v>       0.50000000       0.00000000       0.00000000 </v>
   <v>       0.00000000       0.50000000       0.00000000 </v>
   <v>       0.16666667       0.16666667       0.00000000 </v>
   <v>       0.33333333       0.16666667       0.00000000 </v>
   <v>       0.16666667       0.33333333       0.00000000 </v>
   <v>       0.50000000       0.16666667       0.00000000 </v>
   <v>       0.16666667       0.50000000       0.00000000 </v>
   <v>      -0.33333333       0.16666667       0.00000000 </v>
   <v>       0.16666667      -0.33333333       0.00000000 </v>
   <v>      -0.16666667       0.16666667       0.00000000 </v>
   <v>       0.33333333       0.33333333       0.00000000 </v>
   <v>       0.50000000       0.33333333       0.00000000 </v>
   <v>       0.33333333       0.50000000       0.00000000 </v>
   <v>      -0.33333333       0.33333333       0.00000000 </v>
   <v>       0.50000000       0.50000000       0.00000000 </v>
   <v>       0.00000000       0.00000000       0.14285714 </v>
   <v>       0.16666667       0.00000000       0.14285714 </v>
   <v>      -0.16666667       0.00000000       0.14285714 </v>
   <v>       0.00000000       0.16666667      -0.14285714 </v>
   <v>       0.00000000      -0.16666667      -0.14285714 </v>
   <v>       0.33333333       0.00000000       0.14285714 </v>
   <v>      -0.33333333       0.00000000       0.14285714 </v>
   <v>       0.00000000       0.33333333      -0.14285714 </v>
   <v>       0.00000000      -0.33333333      -0.14285714 </v>
   <v>       0.50000000       0.00000000       0.14285714 </v>
   <v>       0.00000000       0.50000000      -0.14285714 </v>
   <v>       0.16666667       0.16666667       0.14285714 </v>
   <v>      -0.16666667      -0.16666667       0.14285714 </v>
   <v>       0.33333333       0.16666667       0.14285714 </v>
   <v>      -0.33333333      -0.16666667       0.14285714 </v>
   <v>       0.16666667       0.33333333      -0.14285714 </v>
   <v>      -0.16666667      -0.33333333      -0.14285714 </v>
   <v>       0.50000000       0.16666667       0.14285714 </v>
   <v>       0.50000000      -0.16666667       0.14285714 </v>
   <v>       0.16666667       0.50000000      -0.14285714 </v>
   <v>      -0.16666667       0.50000000      -0.14285714 </v>
   <v>      -0.33333333       0.16666667       0.14285714 </v>
   <v>       0.33333333      -0.16666667       0.14285714 </v>
   <v>       0.16666667      -0.33333333      -0.14285714 </v>
   <v>      -0.16666667       0.33333333      -0.14285714 </v>
   <v>      -0.16666667       0.16666667       0.14285714 </v>
   <v>       0.16666667      -0.16666667       0.14285714 </v>
   <v>       0.33333333       0.33333333       0.14285714 </v>
   <v>      -0.33333333      -0.33333333       0.14285714 </v>
   <v>       0.50000000       0.33333333       0.14285714 </v>
   <v>       0.50000000      -0.33333333       0.14285714 </v>
   <v>       0.33333333       0.50000000      -0.14285714 </v>
   <v>      -0.33333333       0.50000000      -0.14285714 </v>
   <v>      -0.33333333       0.33333333       0.14285714 </v>
   <v>       0.33333333      -0.33333333       0.14285714 </v>
   <v>       0.50000000       0.50000000       0.14285714 </v>
   <v>       0.00000000       0.00000000       0.28571429 </v>
   <v>       0.16666667       0.00000000       0.28571429 </v>
   <v>      -0.16666667       0.00000000       0.28571429 </v>
   <v>       0.00000000       0.16666667      -0.28571429 </v>
   <v>       0.00000000      -0.16666667      -0.28571429 </v>
   <v>       0.33333333       0.00000000       0.28571429 </v>
   <v>      -0.33333333       0.00000000       0.28571429 </v>
   <v>       0.00000000       0.33333333      -0.28571429 </v>
   <v>       0.00000000      -0.33333333      -0.28571429 </v>
   <v>       0.50000000       0.00000000       0.28571429 </v>
   <v>       0.00000000       0.50000000      -0.28571429 </v>
   <v>       0.16666667       0.16666667       0.28571429 </v>
   <v>      -0.16666667      -0.16666667       0.28571429 </v>
   <v>       0.33333333       0.16666667       0.28571429 </v>
   <v>      -0.33333333      -0.16666667       0.28571429 </v>
   <v>       0.16666667       0.33333333      -0.28571429 </v>
   <v>      -0.16666667      -0.33333333      -0.28571429 </v>
   <v>       0.50000000       0.16666667       0.28571429 </v>
   <v>       0.50000000      -0.16666667       0.28571429 </v>
   <v>       0.16666667       0.50000000      -0.28571429 </v>
   <v>      -0.16666667       0.50000000      -0.28571429 </v>
   <v>      -0.33333333       0.16666667       0.28571429 </v>
   <v>       0.33333333      -0.16666667       0.28571429 </v>
   <v>       0.16666667      -0.33333333      -0.28571429 </v>
   <v>      -0.16666667       0.33333333      -0.28571429 </v>
   <v>      -0.16666667       0.16666667       0.28571429 </v>
   <v>       0.16666667      -0.16666667       0.28571429 </v>
   <v>       0.33333333       0.33333333       0.28571429 </v>
   <v>      -0.33333333      -0.33333333       0.28571429 </v>
   <v>       0.50000000       0.33333333       0.28571429 </v>
   <v>       0.50000000      -0.33333333       0.28571429 </v>
   <v>       0.33333333       0.50000000      -0.28571429 </v>
   <v>      -0.33333333       0.50000000      -0.28571429 </v>
   <v>      -0.33333333       0.33333333       0.28571429 </v>
   <v>       0.33333333      -0.33333333       0.28571429 </v>
   <v>       0.50000000       0.50000000       0.28571429 </v>
   <v>       0.00000000       0.00000000       0.42857143 </v>
   <v>       0.16666667       0.00000000       0.42857143 </v>
   <v>      -0.16666667       0.00000000       0.42857143 </v>
   <v>       0.00000000       0.16666667      -0.42857143 </v>
   <v>       0.00000000      -0.16666667      -0.42857143 </v>
   <v>       0.33333333       0.00000000       0.42857143 </v>
   <v>      -0.33333333       0.00000000       0.42857143 </v>
   <v>       0.00000000       0.33333333      -0.42857143 </v>
   <v>       0.00000000      -0.33333333      -0.42857143 </v>
   <v>       0.50000000       0.00000000       0.42857143 </v>
   <v>       0.00000000       0.50000000      -0.42857143 </v>
   <v>       0.16666667       0.16666667       0.42857143 </v>
   <v>      -0.16666667      -0.16666667       0.42857143 </v>
   <v>       0.33333333       0.16666667       0.42857143 </v>
   <v>      -0.33333333      -0.16666667       0.42857143 </v>
   <v>       0.16666667       0.33333333      -0.42857143 </v>
   <v>      -0.16666667      -0.33333333      -0.42857143 </v>
   <v>       0.50000000       0.16666667       0.42857143 </v>
   <v>       0.50000000      -0.16666667       0.42857143 </v>
   <v>       0.16666667       0.50000000      -0.42857143 </v>
   <v>      -0.16666667       0.50000000      -0.42857143 </v>
   <v>      -0.33333333       0.16666667       0.42857143 </v>
   <v>       0.33333333      -0.16666667       0.42857143 </v>
   <v>       0.16666667      -0.33333333      -0.42857143 </v>
   <v>      -0.16666667       0.33333333      -0.42857143 </v>
   <v>      -0.16666667       0.16666667       0.42857143 </v>
   <v>       0.16666667      -0.16666667       0.42857143 </v>
   <v>       0.33333333       0.33333333       0.42857143 </v>
   <v>      -0.33333333      -0.33333333       0.42857143 </v>
   <v>       0.50000000       0.33333333       0.42857143 </v>
   <v>       0.50000000      -0.33333333       0.42857143 </v>
   <v>       0.33333333       0.50000000      -0.42857143 </v>
   <v>      -0.33333333       0.50000000      -0.42857143 </v>
   <v>      -0.33333333       0.33333333       0.42857143 </v>
   <v>       0.33333333      -0.33333333       0.42857143 </v>
   <v>       0.50000000       0.50000000       0.42857143 </v>
  </varray>
  <varray name="weights" >
   <v>       0.00396825 </v>
   <v>       0.00793651 </v>
   <v>       0.00793651 </v>
   <v>       0.00793651 </v>
   <v>       0.00793651 </v>
   <v>       0.00396825 </v>
   <v>       0.00396825 </v>
   <v>       0.00793651 </v>
   <v>       0.00793651 </v>
   <v>       0.00793651 </v>
   <v>       0.00793651 </v>
   <v>       0.00793651 </v>
   <v>       0.00793651 </v>
   <v>       0.00793651 </v>
   <v>       0.00793651 </v>
   <v>       0.00793651 </v>
   <v>       0.00793651 </v>
   <v>       0.00793651 </v>
   <v>       0.00793651 </v>
   <v>       0.00396825 </v>
   <v>       0.00793651 </v>
   <v>       0.00793651 </v>
   <v>       0.00793651 </v>
   <v>       0.00793651 </v>
   <v>       0.00793651 </v>
   <v>       0.00793651 </v>
   <v>       0.00793651 </v>
   <v>       0.00793651 </v>
   <v>       0.00793651 </v>
   <v>       0.00793651 </v>
   <v>       0.00793651 </v>
   <v>       0.00793651 </v>
   <v>       0.00793651 </v>
   <v>       0.00793651 </v>
   <v>       0.00793651 </v>
   <v>       0.00793651 </v>
   <v>       0.00793651 </v>
   <v>       0.00793651 </v>
   <v>       0.00793651 </v>
   <v>       0.00793651 </v>
   <v>       0.00793651 </v>
   <v>       0.00793651 </v>
   <v>       0.00793651 </v>
   <v>       0.00793651 </v>
   <v>       0.00793651 </v>
   <v>       0.00793651 </v>
   <v>       0.00793651 </v>
   <v>       0.00793651 </v>
   <v>       0.00793651 </v>
   <v>       0.00793651 </v>
   <v>       0.00793651 </v>
   <v>       0.00793651 </v>
   <v>       0.00793651 </v>
   <v>       0.00793651 </v>
   <v>       0.00793651 </v>
   <v>       0.00793651 </v>
   <v>       0.00793651 </v>
   <v>       0.00793651 </v>
   <v>       0.00793651 </v>
   <v>       0.00793651 </v>
   <v>       0.00793651 </v>
   <v>       0.00793651 </v>
   <v>       0.00793651 </v>
   <v>       0.00793651 </v>
   <v>       0.00793651 </v>
   <v>       0.00793651 </v>
   <v>       0.00793651 </v>
   <v>       0.00793651 </v>
   <v>       0.00793651 </v>
   <v>       0.00793651 </v>
   <v>       0.00793651 </v>
   <v>       0.00793651 </v>
   <v>       0.00793651 </v>
   <v>       0.00793651 </v>
   <v>       0.00793651 </v>
   <v>       0.00793651 </v>
   <v>       0.00793651 </v>
   <v>       0.00793651 </v>
   <v>       0.00793651 </v>
   <v>       0.00793651 </v>
   <v>       0.00793651 </v>
   <v>       0.00793651 </v>
   <v>       0.00793651 </v>
   <v>       0.00793651 </v>
   <v>       0.00793651 </v>
   <v>       0.00793651 </v>
   <v>       0.00793651 </v>
   <v>       0.00793651 </v>
   <v>       0.00793651 </v>
   <v>       0.00793651 </v>
   <v>       0.00793651 </v>
   <v>       0.00793651 </v>
   <v>       0.00793651 </v>
   <v>       0.00793651 </v>
   <v>       0.00793651 </v>
   <v>       0.00793651 </v>
   <v>       0.00793651 </v>
   <v>       0.00793651 </v>
   <v>       0.00793651 </v>
   <v>       0.00793651 </v>
   <v>       0.00793651 </v>
   <v>       0.00793651 </v>
   <v>       0.00793651 </v>
   <v>       0.00793651 </v>
   <v>       0.00793651 </v>
   <v>       0.00793651 </v>
   <v>       0.00793651 </v>
   <v>       0.00793651 </v>
   <v>       0.00793651 </v>
   <v>       0.00793651 </v>
   <v>       0.00793651 </v>
   <v>       0.00793651 </v>
   <v>       0.00793651 </v>
   <v>       0.00793651 </v>
   <v>       0.00793651 </v>
   <v>       0.00793651 </v>
   <v>       0.00793651 </v>
   <v>       0.00793651 </v>
   <v>       0.00793651 </v>
   <v>       0.00793651 </v>
   <v>       0.00793651 </v>
   <v>       0.00793651 </v>
   <v>       0.00793651 </v>
   <v>       0.00793651 </v>
   <v>       0.00793651 </v>
   <v>       0.00793651 </v>
   <v>       0.00793651 </v>
   <v>       0.00793651 </v>
  </varray>
 </kpoints>
 <parameters>
  <separator name="general" >
   <i type="string" name="SYSTEM">unknown system</i>
   <i type="logical" name="LCOMPAT"> F  </i>
  </separator>
  <separator name="electronic" >
   <i type="string" name="PREC">accura</i>
   <i name="ENMAX">    500.00000000</i>
   <i name="ENAUG">    407.93300000</i>
   <i name="EDIFF">      0.00000001</i>
   <i type="int" name="IALGO">    38</i>
   <i type="int" name="IWAVPR">    10</i>
   <i type="int" name="NBANDS">    40</i>
   <i type="int" name="NBANDSLOW">    -1</i>
   <i type="int" name="NBANDSHIGH">    -1</i>
   <i name="NELECT">     64.00000000</i>
   <i type="int" name="TURBO">     0</i>
   <i type="int" name="IRESTART">     0</i>
   <i type="int" name="NREBOOT">     0</i>
   <i type="int" name="NMIN">     0</i>
   <i name="EREF">      0.00000000</i>
   <separator name="electronic smearing" >
    <i type="int" name="ISMEAR">     0</i>
    <i name="SIGMA">      0.01000000</i>
    <i name="KSPACING">      0.50000000</i>
    <i type="logical" name="KGAMMA"> T  </i>
    <i type="logical" name="KBLOWUP"> T  </i>
   </separator>
   <separator name="electronic projectors" >
    <i type="logical" name="LREAL"> F  </i>
    <v name="ROPT">      0.00000000      0.00000000</v>
    <i type="int" name="LMAXPAW">  -100</i>
    <i type="int" name="LMAXMIX">     2</i>
    <i type="logical" name="NLSPLINE"> F  </i>
   </separator>
   <separator name="electronic startup" >
    <i type="int" name="ISTART">     0</i>
    <i type="int" name="ICHARG">     2</i>
    <i type="int" name="INIWAV">     1</i>
   </separator>
   <separator name="electronic spin" >
    <i type="int" name="ISPIN">     1</i>
    <i type="logical" name="LNONCOLLINEAR"> F  </i>
    <v name="MAGMOM">      1.00000000      1.00000000      1.00000000      1.00000000      1.00000000      1.00000000      1.00000000      1.00000000</v>
    <i name="NUPDOWN">     -1.00000000</i>
    <i type="logical" name="LSORBIT"> F  </i>
    <v name="SAXIS">      0.00000000      0.00000000      1.00000000</v>
    <i type="logical" name="LSPIRAL"> F  </i>
    <v name="QSPIRAL">      0.00000000      0.00000000      0.00000000</v>
    <i type="logical" name="LZEROZ"> F  </i>
   </separator>
   <separator name="electronic exchange-correlation" >
    <i type="logical" name="LASPH"> F  </i>
   </separator>
   <separator name="electronic convergence" >
    <i type="int" name="NELM">    60</i>
    <i type="int" name="NELMDL">    -5</i>
    <i type="int" name="NELMIN">     2</i>
    <i name="ENINI">    500.00000000</i>
    <separator name="electronic convergence detail" >
     <i type="logical" name="LDIAG"> T  </i>
     <i type="logical" name="LSUBROT"> F  </i>
     <i name="WEIMIN">      0.00000000</i>
     <i name="EBREAK">      0.00000000</i>
     <i name="DEPER">      0.30000000</i>
     <i type="int" name="NRMM">     4</i>
     <i name="TIME">      0.40000000</i>
    </separator>
   </separator>
   <separator name="electronic mixer" >
    <i name="AMIX">      0.40000000</i>
    <i name="BMIX">      1.00000000</i>
    <i name="AMIN">      0.10000000</i>
    <i name="AMIX_MAG">      1.60000000</i>
    <i name="BMIX_MAG">      1.00000000</i>
    <separator name="electronic mixer details" >
     <i type="int" name="IMIX">     4</i>
     <i type="logical" name="MIXFIRST"> F  </i>
     <i type="int" name="MAXMIX">   -45</i>
     <i name="WC">    100.00000000</i>
     <i type="int" name="INIMIX">     1</i>
     <i type="int" name="MIXPRE">     1</i>
     <i type="int" name="MREMOVE">     5</i>
    </separator>
   </separator>
   <separator name="electronic dipolcorrection" >
    <i type="logical" name="LDIPOL"> F  </i>
    <i type="logical" name="LMONO"> F  </i>
    <i type="int" name="IDIPOL">     0</i>
    <i name="EPSILON">      1.00000000</i>
    <v name="DIPOL">   -100.00000000   -100.00000000   -100.00000000</v>
    <i name="EFIELD">      0.00000000</i>
    <i type="logical" name="LVACPOTAV"> F  </i>
   </separator>
  </separator>
  <separator name="grids" >
   <i type="int" name="NGX">    54</i>
   <i type="int" name="NGY">    54</i>
   <i type="int" name="NGZ">    48</i>
   <i type="int" name="NGXF">   108</i>
   <i type="int" name="NGYF">   108</i>
   <i type="int" name="NGZF">    96</i>
   <i type="logical" name="ADDGRID"> F  </i>
  </separator>
  <separator name="ionic" >
   <i type="int" name="NSW">     0</i>
   <i type="int" name="IBRION">    -1</i>
   <i type="int" name="MDALGO">     0</i>
   <i type="int" name="ISIF">     2</i>
   <i name="PSTRESS">      0.00000000</i>
   <i name="EDIFFG">      0.00000010</i>
   <i type="int" name="NFREE">     0</i>
   <i name="POTIM">      0.50000000</i>
   <i name="SMASS">     -3.00000000</i>
   <i name="SCALEE">      1.00000000</i>
  </separator>
  <separator name="ionic md" >
   <i name="TEBEG">      0.00010000</i>
   <i name="TEEND">      0.00010000</i>
   <i type="int" name="NBLOCK">     1</i>
   <i type="int" name="KBLOCK">     1</i>
   <i type="int" name="NPACO">   256</i>
   <i name="APACO">     10.00000000</i>
  </separator>
  <separator name="symmetry" >
   <i type="int" name="ISYM">     2</i>
   <i name="SYMPREC">      0.00001000</i>
  </separator>
  <separator name="dos" >
   <i type="int" name="LORBIT">     0</i>
   <v name="RWIGS">     -1.00000000     -1.00000000</v>
   <i type="int" name="NEDOS">   301</i>
   <i name="EMIN">     10.00000000</i>
   <i name="EMAX">    -10.00000000</i>
   <i name="EFERMI">      0.00000000</i>
  </separator>
  <separator name="writing" >
   <i type="int" name="NWRITE">     2</i>
   <i type="logical" name="LWAVE"> F  </i>
   <i type="logical" name="LDOWNSAMPLE"> F  </i>
   <i type="logical" name="LCHARG"> F  </i>
   <i type="logical" name="LPARD"> F  </i>
   <i type="logical" name="LVTOT"> F  </i>
   <i type="logical" name="LVHAR"> F  </i>
   <i type="logical" name="LELF"> F  </i>
   <i type="logical" name="LOPTICS"> F  </i>
   <v name="STM">      0.00000000      0.00000000      0.00000000      0.00000000      0.00000000      0.00000000      0.00000000</v>
  </separator>
  <separator name="performance" >
   <i type="int" name="NPAR">     8</i>
   <i type="int" name="NSIM">     4</i>
   <i type="int" name="NBLK">    -1</i>
   <i type="logical" name="LPLANE"> T  </i>
   <i type="logical" name="LSCALAPACK"> T  </i>
   <i type="logical" name="LSCAAWARE"> F  </i>
   <i type="logical" name="LSCALU"> F  </i>
   <i type="logical" name="LASYNC"> F  </i>
   <i type="logical" name="LORBITALREAL"> F  </i>
  </separator>
  <separator name="miscellaneous" >
   <i type="int" name="IDIOT">     3</i>
   <i type="int" name="PHON_NSTRUCT">    -1</i>
   <i type="logical" name="LMUSIC"> F  </i>
   <v name="POMASS">    132.90000000     35.45300000</v>
   <v name="DARWINR">      0.00000000      0.00000000</v>
   <v name="DARWINV">      1.00000000      1.00000000</v>
   <i type="logical" name="LCORR"> T  </i>
  </separator>
  <i type="logical" name="GGA_COMPAT"> T  </i>
  <i type="logical" name="LBERRY"> F  </i>
  <i type="int" name="ICORELEVEL">     0</i>
  <i type="logical" name="LDAU"> F  </i>
  <i type="int" name="I_CONSTRAINED_M">     0</i>
  <separator name="electronic exchange-correlation" >
   <i type="string" name="GGA    ">PE</i>
   <i type="string" name="XC_C">1</i>
   <i type="int" name="VOSKOWN">     0</i>
   <i type="logical" name="LHFCALC"> F  </i>
   <i type="string" name="PRECFOCK"></i>
   <i type="logical" name="LSYMGRAD"> F  </i>
   <i type="logical" name="LHFONE"> F  </i>
   <i type="logical" name="LRHFCALC"> F  </i>
   <i type="logical" name="LTHOMAS"> F  </i>
   <i type="logical" name="LMODELHF"> F  </i>
   <i type="logical" name="LFOCKACE"> F  </i>
   <i name="ENCUT4O">     -1.00000000</i>
   <i type="int" name="EXXOEP">     0</i>
   <i type="int" name="FOURORBIT">     0</i>
   <i name="AEXX">      0.00000000</i>
   <i name="HFALPHA">      0.00000000</i>
   <i name="MCALPHA">      0.00000000</i>
   <i name="ALDAX">      1.00000000</i>
   <i name="AGGAX">      1.00000000</i>
   <i name="AMGGAX">      1.00000000</i>
   <i name="ALDAC">      1.00000000</i>
   <i name="AGGAC">      1.00000000</i>
   <i name="AMGGAC">      1.00000000</i>
   <i type="int" name="NKREDX">     1</i>
   <i type="int" name="NKREDY">     1</i>
   <i type="int" name="NKREDZ">     1</i>
   <i type="logical" name="SHIFTRED"> F  </i>
   <i type="logical" name="ODDONLY"> F  </i>
   <i type="logical" name="EVENONLY"> F  </i>
   <i type="int" name="LMAXFOCK">     0</i>
   <i type="int" name="NMAXFOCKAE">     0</i>
   <i type="logical" name="LFOCKAEDFT"> F  </i>
   <i name="HFSCREEN">      0.00000000</i>
   <i name="HFSCREENC">      0.00000000</i>
   <i type="int" name="NBANDSGWLOW">     0</i>
  </separator>
  <separator name="vdW DFT" >
   <i type="logical" name="LUSE_VDW"> F  </i>
   <i type="int" name="IVDW_NL">    -1</i>
   <i type="logical" name="LSPIN_VDW"> F  </i>
   <i name="ZAB_VDW">     -0.84910000</i>
   <i name="GAMMA_VDW">      1.39626340</i>
   <i name="ALPHA_VDW">      0.00000000</i>
   <i name="PARAM1">      0.12340000</i>
   <i name="PARAM2">      1.00000000</i>
   <i name="BPARAM">      6.30000000</i>
   <i name="CPARAM">      0.00930000</i>
  </separator>
  <separator name="model GW" >
   <i type="int" name="MODEL_GW">     0</i>
   <i name="MODEL_EPS0">     21.34448344</i>
   <i name="MODEL_ALPHA">      1.00000000</i>
  </separator>
  <separator name="linear response parameters" >
   <i type="logical" name="LEPSILON"> F  </i>
   <i type="logical" name="LRPA"> F  </i>
   <i type="logical" name="LNABLA"> F  </i>
   <i type="logical" name="LVEL"> F  </i>
   <i name="CSHIFT">      0.10000000</i>
   <i name="OMEGAMAX">     -1.00000000</i>
   <i name="DEG_THRESHOLD">      0.00200000</i>
   <i name="RTIME">     -0.10000000</i>
   <i name="WPLASMAI">      0.00000000</i>
   <v name="DFIELD">      0.00000000      0.00000000      0.00000000</v>
   <v name="WPLASMA">      0.00000000      0.00000000      0.00000000      0.00000000      0.00000000      0.00000000      0.00000000      0.00000000      0.00000000</v>
  </separator>
  <separator name="orbital magnetization" >
   <i type="logical" name="NUCIND"> F  </i>
   <v name="MAGPOS">      0.00000000      0.00000000      0.00000000</v>
   <i type="logical" name="LNICSALL"> T  </i>
   <i type="logical" name="ORBITALMAG"> F  </i>
   <i type="logical" name="LMAGBLOCH"> F  </i>
   <i type="logical" name="LCHIMAG"> F  </i>
   <i type="logical" name="LGAUGE"> T  </i>
   <i type="int" name="MAGATOM">     0</i>
   <v name="MAGDIPOL">      0.00000000      0.00000000      0.00000000</v>
   <v name="AVECCONST">      0.00000000      0.00000000      0.00000000</v>
  </separator>
  <separator name="response functions" >
   <i type="logical" name="LALL_IN_ONE"> F  </i>
   <i type="int" name="IALL_IN_ONE">    -1</i>
   <i type="int" name="NBANDS_WAVE">    -1</i>
   <i type="logical" name="LFINITE_TEMPERATURE"> F  </i>
   <i type="logical" name="LADDER"> F  </i>
   <i type="logical" name="LRPAFORCE"> F  </i>
   <i type="logical" name="LFXC"> F  </i>
   <i type="logical" name="LHARTREE"> T  </i>
   <i type="int" name="IBSE">     0</i>
   <v type="int" name="KPOINT">    -1     0     0     0</v>
   <i type="logical" name="LTCTC"> F  </i>
   <i type="logical" name="LTCTE"> F  </i>
   <i type="logical" name="LTETE"> F  </i>
   <i type="logical" name="LTRIPLET"> F  </i>
   <i type="logical" name="LFXCEPS"> F  </i>
   <i type="logical" name="LFXHEG"> F  </i>
   <i type="int" name="NATURALO">     2</i>
   <i type="logical" name="LHOLEGF"> F  </i>
   <i type="logical" name="L2ORDER"> F  </i>
   <i type="logical" name="LDMP1"> F  </i>
   <i type="logical" name="LMP2LT"> F  </i>
   <i type="logical" name="LSMP2LT"> F  </i>
   <i type="logical" name="LGWLF"> F  </i>
   <i name="ENCUTGW">     -1.60000002</i>
   <i name="ENCUTGWSOFT">     -1.60000002</i>
   <i name="ENCUTLF">     -1.00000000</i>
   <i type="logical" name="ESF_SPLINES"> F  </i>
   <i name="ESF_CONV">      0.01000000</i>
   <i type="int" name="ESF_NINTER">    15</i>
   <i type="int" name="LMAXMP2">    -1</i>
   <i name="SCISSOR">      0.00000000</i>
   <i type="int" name="NOMEGA">     0</i>
   <i type="int" name="NOMEGAR">     0</i>
   <i type="int" name="NBANDSGW">    -1</i>
   <i type="int" name="NBANDSO">    -1</i>
   <i type="int" name="NBANDSV">    -1</i>
   <i type="int" name="NELMGW">     1</i>
   <i type="int" name="NELMHF">     1</i>
   <i type="int" name="DIM">     3</i>
   <i type="int" name="IESPILON">     4</i>
   <i type="int" name="ANTIRES">     0</i>
   <i name="OMEGAMAX">    -30.00000000</i>
   <i name="OMEGAMIN">    -30.00000000</i>
   <i name="OMEGATL">   -200.00000000</i>
   <i type="int" name="OMEGAGRID">     0</i>
   <i name="CSHIFT">     -0.10000000</i>
   <i type="logical" name="LSELFENERGY"> F  </i>
   <i type="logical" name="LSPECTRAL"> F  </i>
   <i type="logical" name="LSPECTRALGW"> F  </i>
   <i type="logical" name="LSINGLES"> F  </i>
   <i type="logical" name="LFERMIGW"> F  </i>
   <i type="logical" name="ODDONLYGW"> F  </i>
   <i type="logical" name="EVENONLYGW"> F  </i>
   <i type="int" name="NKREDLFX">     1</i>
   <i type="int" name="NKREDLFY">     1</i>
   <i type="int" name="NKREDLFZ">     1</i>
   <i type="int" name="MAXMEM">  2800</i>
   <i type="int" name="TELESCOPE">     0</i>
   <i type="int" name="NTAUPAR">    -1</i>
   <i type="int" name="NOMEGAPAR">    -1</i>
   <i name="DAMP_NEWTON">      0.80000001</i>
   <i name="LAMBDA">      1.00000000</i>
  </separator>
  <separator name="External order field" >
   <i name="OFIELD_KAPPA">      0.00000000</i>
   <v name="OFIELD_K">      0.00000000      0.00000000      0.00000000</v>
   <i name="OFIELD_Q6_NEAR">      0.00000000</i>
   <i name="OFIELD_Q6_FAR">      0.00000000</i>
   <i name="OFIELD_A">      0.00000000</i>
  </separator>
  <separator name="optional k-points parameters" >
   <i type="int" name="KPOINTS_OPT_MODE">     1</i>
   <i type="logical" name="LKPOINTS_OPT"> F  </i>
  </separator>
 </parameters>
 <atominfo>
  <atoms>       8 </atoms>
  <types>       2 </types>
  <array name="atoms" >
   <dimension dim="1">ion</dimension>
   <field type="string">element</field>
   <field type="int">atomtype</field>
   <set>
    <rc><c>Cs</c><c>   1</c></rc>
    <rc><c>Cs</c><c>   1</c></rc>
    <rc><c>Cs</c><c>   1</c></rc>
    <rc><c>Cs</c><c>   1</c></rc>
    <rc><c>Cl</c><c>   2</c></rc>
    <rc><c>Cl</c><c>   2</c></rc>
    <rc><c>Cl</c><c>   2</c></rc>
    <rc><c>Cl</c><c>   2</c></rc>
   </set>
  </array>
  <array name="atomtypes" >
   <dimension dim="1">type</dimension>
   <field type="int">atomspertype</field>
   <field type="string">element</field>
   <field>mass</field>
   <field>valence</field>
   <field type="string">pseudopotential</field>
   <set>
    <rc><c>   4</c><c>Cs</c><c>    132.90000000</c><c>      9.00000000</c><c>  PAW_PBE Cs_sv 25Jan2019               </c></rc>
    <rc><c>   4</c><c>Cl</c><c>     35.45300000</c><c>      7.00000000</c><c>  PAW_PBE Cl 06Sep2000                  </c></rc>
   </set>
  </array>
 </atominfo>
 <structure name="initialpos" >
  <crystal>
   <varray name="basis" >
    <v>       4.14369834       4.14369834       4.14369834 </v>
    <v>       4.14369834      -4.14369834      -4.14369834 </v>
    <v>       0.00000000       4.14369834      -4.14369834 </v>
   </varray>
   <i name="volume">    284.59311253 </i>
   <varray name="rec_basis" >
    <v>       0.12066515       0.06033258       0.06033258 </v>
    <v>       0.12066515      -0.06033258      -0.06033258 </v>
    <v>      -0.00000000       0.12066515      -0.12066515 </v>
   </varray>
  </crystal>
  <varray name="positions" >
   <v>       0.00000000       0.00000000       0.00000000 </v>
   <v>       0.50000000       0.50000000       0.00000000 </v>
   <v>       0.25000000       0.75000000       0.50000000 </v>
   <v>       0.75000000       0.25000000       0.50000000 </v>
   <v>       0.50107926       0.00000000       0.00107926 </v>
   <v>       0.00000000       0.50000000       0.00000000 </v>
   <v>       0.75000000       0.75000000       0.50000000 </v>
   <v>       0.25000000       0.25000000       0.50000000 </v>
  </varray>
 </structure>
 <calculation>
  <scstep>
   <time name="dav">    1.65    1.65</time>
   <time name="total">    1.68    1.68</time>
   <energy>
    <i name="alphaZ">    214.16676563 </i>
    <i name="ewald">  -3265.84830284 </i>
    <i name="hartreedc">   -531.75726098 </i>
    <i name="XCdc">   -120.86789182 </i>
    <i name="pawpsdc">   3246.12869203 </i>
    <i name="pawaedc">  -2972.40719683 </i>
    <i name="eentropy">     -0.00011251 </i>
    <i name="bandstr">     38.88063548 </i>
    <i name="atom">   3861.61514281 </i>
    <i name="e_fr_energy">    469.91047097 </i>
    <i name="e_wo_entrp">    469.91058349 </i>
    <i name="e_0_energy">    469.91052723 </i>
   </energy>
  </scstep>
  <scstep>
   <time name="dav">    2.05    2.05</time>
   <time name="total">    2.05    2.05</time>
   <energy>
    <i name="e_fr_energy">     16.43673500 </i>
    <i name="e_wo_entrp">     16.43673500 </i>
    <i name="e_0_energy">     16.43673500 </i>
   </energy>
  </scstep>
  <scstep>
   <time name="dav">    1.85    1.85</time>
   <time name="total">    1.85    1.85</time>
   <energy>
    <i name="e_fr_energy">    -27.12162313 </i>
    <i name="e_wo_entrp">    -27.12162313 </i>
    <i name="e_0_energy">    -27.12162313 </i>
   </energy>
  </scstep>
  <scstep>
   <time name="dav">    1.83    1.83</time>
   <time name="total">    1.83    1.83</time>
   <energy>
    <i name="e_fr_energy">    -27.79879247 </i>
    <i name="e_wo_entrp">    -27.79879247 </i>
    <i name="e_0_energy">    -27.79879247 </i>
   </energy>
  </scstep>
  <scstep>
   <time name="dav">    1.76    1.76</time>
   <time name="total">    1.86    1.86</time>
   <energy>
    <i name="e_fr_energy">    -27.81210255 </i>
    <i name="e_wo_entrp">    -27.81210255 </i>
    <i name="e_0_energy">    -27.81210255 </i>
   </energy>
  </scstep>
  <scstep>
   <time name="dav">    1.77    1.77</time>
   <time name="total">    1.90    1.90</time>
   <energy>
    <i name="e_fr_energy">    -26.30026534 </i>
    <i name="e_wo_entrp">    -26.30026534 </i>
    <i name="e_0_energy">    -26.30026534 </i>
   </energy>
  </scstep>
  <scstep>
   <time name="dav">    1.98    1.98</time>
   <time name="total">    2.10    2.10</time>
   <energy>
    <i name="e_fr_energy">    -26.12749701 </i>
    <i name="e_wo_entrp">    -26.12749701 </i>
    <i name="e_0_energy">    -26.12749701 </i>
   </energy>
  </scstep>
  <scstep>
   <time name="dav">    1.80    1.80</time>
   <time name="total">    1.92    1.93</time>
   <energy>
    <i name="e_fr_energy">    -26.13350040 </i>
    <i name="e_wo_entrp">    -26.13350040 </i>
    <i name="e_0_energy">    -26.13350040 </i>
   </energy>
  </scstep>
  <scstep>
   <time name="dav">    1.92    1.92</time>
   <time name="total">    2.04    2.04</time>
   <energy>
    <i name="e_fr_energy">    -26.13150114 </i>
    <i name="e_wo_entrp">    -26.13150114 </i>
    <i name="e_0_energy">    -26.13150114 </i>
   </energy>
  </scstep>
  <scstep>
   <time name="dav">    1.81    1.81</time>
   <time name="total">    1.93    1.94</time>
   <energy>
    <i name="e_fr_energy">    -26.13209487 </i>
    <i name="e_wo_entrp">    -26.13209487 </i>
    <i name="e_0_energy">    -26.13209487 </i>
   </energy>
  </scstep>
  <scstep>
   <time name="dav">    1.90    1.90</time>
   <time name="total">    2.02    2.02</time>
   <energy>
    <i name="e_fr_energy">    -26.13225497 </i>
    <i name="e_wo_entrp">    -26.13225497 </i>
    <i name="e_0_energy">    -26.13225497 </i>
   </energy>
  </scstep>
  <scstep>
   <time name="dav">    1.80    1.80</time>
   <time name="total">    1.92    1.92</time>
   <energy>
    <i name="e_fr_energy">    -26.13226350 </i>
    <i name="e_wo_entrp">    -26.13226350 </i>
    <i name="e_0_energy">    -26.13226350 </i>
   </energy>
  </scstep>
  <scstep>
   <time name="dav">    1.76    1.76</time>
   <time name="total">    1.89    1.89</time>
   <energy>
    <i name="e_fr_energy">    -26.13226175 </i>
    <i name="e_wo_entrp">    -26.13226175 </i>
    <i name="e_0_energy">    -26.13226175 </i>
   </energy>
  </scstep>
  <scstep>
   <time name="dav">    1.89    1.89</time>
   <time name="total">    2.01    2.01</time>
   <energy>
    <i name="e_fr_energy">    -26.13226177 </i>
    <i name="e_wo_entrp">    -26.13226177 </i>
    <i name="e_0_energy">    -26.13226177 </i>
   </energy>
  </scstep>
  <scstep>
   <time name="dav">    1.32    1.32</time>
   <time name="total">    1.43    1.44</time>
   <energy>
    <i name="e_fr_energy">    -26.13226181 </i>
    <i name="e_wo_entrp">    -26.13226181 </i>
    <i name="e_0_energy">    -26.13226181 </i>
   </energy>
  </scstep>
  <scstep>
   <time name="dav">    1.32    1.32</time>
   <time name="total">    1.34    1.35</time>
   <energy>
    <i name="alphaZ">    214.16676563 </i>
    <i name="ewald">  -3265.84830284 </i>
    <i name="hartreedc">   -554.75480091 </i>
    <i name="XCdc">   -118.49244572 </i>
    <i name="pawpsdc">   3633.67930202 </i>
    <i name="pawaedc">  -3361.17619823 </i>
    <i name="eentropy">     -0.00000000 </i>
    <i name="bandstr">   -435.32172458 </i>
    <i name="atom">   3861.61514281 </i>
    <i name="e_fr_energy">    -26.13226181 </i>
    <i name="e_wo_entrp">    -26.13226181 </i>
    <i name="e_0_energy">    -26.13226181 </i>
   </energy>
  </scstep>
  <structure>
   <crystal>
    <varray name="basis" >
     <v>       4.14369834       4.14369834       4.14369834 </v>
     <v>       4.14369834      -4.14369834      -4.14369834 </v>
     <v>       0.00000000       4.14369834      -4.14369834 </v>
    </varray>
    <i name="volume">    284.59311253 </i>
    <varray name="rec_basis" >
     <v>       0.12066515       0.06033258       0.06033258 </v>
     <v>       0.12066515      -0.06033258      -0.06033258 </v>
     <v>      -0.00000000       0.12066515      -0.12066515 </v>
    </varray>
   </crystal>
   <varray name="positions" >
    <v>       0.00000000       0.00000000       0.00000000 </v>
    <v>       0.50000000       0.50000000       0.00000000 </v>
    <v>       0.25000000       0.75000000       0.50000000 </v>
    <v>       0.75000000       0.25000000       0.50000000 </v>
    <v>       0.50107926       0.00000000       0.00107926 </v>
    <v>       0.00000000       0.50000000       0.00000000 </v>
    <v>       0.75000000       0.75000000       0.50000000 </v>
    <v>       0.25000000       0.25000000       0.50000000 </v>
   </varray>
  </structure>
  <varray name="forces" >
   <v>       0.00169893       0.00215338       0.00158864 </v>
   <v>       0.00007173       0.00135641       0.00079214 </v>
   <v>       0.00085116       0.00172821      -0.00115406 </v>
   <v>       0.00092008       0.00178094      -0.00120885 </v>
   <v>      -0.00594825      -0.01101968       0.00019694 </v>
   <v>       0.00257263       0.00037767      -0.00022260 </v>
   <v>      -0.00008758       0.00182459      -0.00000174 </v>
   <v>      -0.00007870       0.00179847       0.00000953 </v>
  </varray>
  <varray name="stress" >
   <v>       7.42330412       0.00085592      -0.00018358 </v>
   <v>       0.00085590       7.41391356       0.00611282 </v>
   <v>      -0.00018359       0.00611280       7.41361176 </v>
  </varray>
  <energy>
   <i name="e_fr_energy">    -26.13226181 </i>
   <i name="e_wo_entrp">    -26.13226181 </i>
   <i name="e_0_energy">    -26.13226181 </i>
  </energy>
  <time name="totalsc">   31.40   31.42</time>
  <eigenvalues>
   <array>
    <dimension dim="1">band</dimension>
    <dimension dim="2">kpoint</dimension>
    <dimension dim="3">spin</dimension>
    <field>eigene</field>
    <field>occ</field>
    <set>
     <set comment="spin 1">
      <set comment="kpoint 1">
       <r>  -19.7963    1.0000 </r>
       <r>  -19.6557    1.0000 </r>
       <r>  -19.6548    1.0000 </r>
       <r>  -19.6524    1.0000 </r>
       <r>  -12.5528    1.0000 </r>
       <r>  -12.4822    1.0000 </r>
       <r>  -12.4813    1.0000 </r>
       <r>  -12.4680    1.0000 </r>
       <r>   -7.0329    1.0000 </r>
       <r>   -7.0329    1.0000 </r>
       <r>   -6.9183    1.0000 </r>
       <r>   -6.9174    1.0000 </r>
       <r>   -6.5945    1.0000 </r>
       <r>   -6.5943    1.0000 </r>
       <r>   -6.5008    1.0000 </r>
       <r>   -6.5008    1.0000 </r>
       <r>   -6.2936    1.0000 </r>
       <r>   -6.2936    1.0000 </r>
       <r>   -6.2935    1.0000 </r>
       <r>   -6.0761    1.0000 </r>
       <r>   -1.1141    1.0000 </r>
       <r>   -1.1140    1.0000 </r>
       <r>   -1.0657    1.0000 </r>
       <r>   -1.0625    1.0000 </r>
       <r>   -0.8187    1.0000 </r>
       <r>   -0.8186    1.0000 </r>
       <r>   -0.6560    1.0000 </r>
       <r>   -0.6540    1.0000 </r>
       <r>   -0.4434    1.0000 </r>
       <r>   -0.3952    1.0000 </r>
       <r>   -0.3952    1.0000 </r>
       <r>   -0.3951    1.0000 </r>
       <r>    4.7979    0.0000 </r>
       <r>    5.0131    0.0000 </r>
       <r>    5.0132    0.0000 </r>
       <r>    5.5408    0.0000 </r>
       <r>    5.6176    0.0000 </r>
       <r>    6.6962    0.0000 </r>
       <r>    6.7029    0.0000 </r>
       <r>    7.2524    0.0000 </r>
      </set>
      <set comment="kpoint 2">
       <r>  -19.7886    1.0000 </r>
       <r>  -19.6762    1.0000 </r>
       <r>  -19.6516    1.0000 </r>
       <r>  -19.6427    1.0000 </r>
       <r>  -12.5558    1.0000 </r>
       <r>  -12.5118    1.0000 </r>
       <r>  -12.4674    1.0000 </r>
       <r>  -12.4615    1.0000 </r>
       <r>   -7.0076    1.0000 </r>
       <r>   -6.9976    1.0000 </r>
       <r>   -6.8696    1.0000 </r>
       <r>   -6.8670    1.0000 </r>
       <r>   -6.6629    1.0000 </r>
       <r>   -6.5970    1.0000 </r>
       <r>   -6.4986    1.0000 </r>
       <r>   -6.4283    1.0000 </r>
       <r>   -6.3351    1.0000 </r>
       <r>   -6.2990    1.0000 </r>
       <r>   -6.2821    1.0000 </r>
       <r>   -6.1337    1.0000 </r>
       <r>   -1.1373    1.0000 </r>
       <r>   -1.1096    1.0000 </r>
       <r>   -1.1089    1.0000 </r>
       <r>   -0.9295    1.0000 </r>
       <r>   -0.8825    1.0000 </r>
       <r>   -0.8558    1.0000 </r>
       <r>   -0.8052    1.0000 </r>
       <r>   -0.5896    1.0000 </r>
       <r>   -0.5259    1.0000 </r>
       <r>   -0.5219    1.0000 </r>
       <r>   -0.4223    1.0000 </r>
       <r>   -0.4204    1.0000 </r>
       <r>    5.0432    0.0000 </r>
       <r>    5.1263    0.0000 </r>
       <r>    5.2150    0.0000 </r>
       <r>    5.7668    0.0000 </r>
       <r>    5.8236    0.0000 </r>
       <r>    6.8041    0.0000 </r>
       <r>    6.8355    0.0000 </r>
       <r>    7.0145    0.0000 </r>
      </set>
      <set comment="kpoint 3">
       <r>  -19.7886    1.0000 </r>
       <r>  -19.6762    1.0000 </r>
       <r>  -19.6516    1.0000 </r>
       <r>  -19.6427    1.0000 </r>
       <r>  -12.5558    1.0000 </r>
       <r>  -12.5118    1.0000 </r>
       <r>  -12.4675    1.0000 </r>
       <r>  -12.4614    1.0000 </r>
       <r>   -7.0076    1.0000 </r>
       <r>   -6.9976    1.0000 </r>
       <r>   -6.8696    1.0000 </r>
       <r>   -6.8670    1.0000 </r>
       <r>   -6.6629    1.0000 </r>
       <r>   -6.5970    1.0000 </r>
       <r>   -6.4986    1.0000 </r>
       <r>   -6.4283    1.0000 </r>
       <r>   -6.3351    1.0000 </r>
       <r>   -6.2990    1.0000 </r>
       <r>   -6.2821    1.0000 </r>
       <r>   -6.1337    1.0000 </r>
       <r>   -1.1373    1.0000 </r>
       <r>   -1.1096    1.0000 </r>
       <r>   -1.1089    1.0000 </r>
       <r>   -0.9295    1.0000 </r>
       <r>   -0.8825    1.0000 </r>
       <r>   -0.8558    1.0000 </r>
       <r>   -0.8052    1.0000 </r>
       <r>   -0.5896    1.0000 </r>
       <r>   -0.5259    1.0000 </r>
       <r>   -0.5219    1.0000 </r>
       <r>   -0.4223    1.0000 </r>
       <r>   -0.4204    1.0000 </r>
       <r>    5.0432    0.0000 </r>
       <r>    5.1263    0.0000 </r>
       <r>    5.2150    0.0000 </r>
       <r>    5.7668    0.0000 </r>
       <r>    5.8236    0.0000 </r>
       <r>    6.8040    0.0000 </r>
       <r>    6.8356    0.0000 </r>
       <r>    7.0144    0.0000 </r>
      </set>
      <set comment="kpoint 4">
       <r>  -19.7676    1.0000 </r>
       <r>  -19.7052    1.0000 </r>
       <r>  -19.6470    1.0000 </r>
       <r>  -19.6391    1.0000 </r>
       <r>  -12.5605    1.0000 </r>
       <r>  -12.5406    1.0000 </r>
       <r>  -12.4643    1.0000 </r>
       <r>  -12.4556    1.0000 </r>
       <r>   -6.9363    1.0000 </r>
       <r>   -6.9091    1.0000 </r>
       <r>   -6.7505    1.0000 </r>
       <r>   -6.7307    1.0000 </r>
       <r>   -6.7120    1.0000 </r>
       <r>   -6.7120    1.0000 </r>
       <r>   -6.4469    1.0000 </r>
       <r>   -6.3858    1.0000 </r>
       <r>   -6.3767    1.0000 </r>
       <r>   -6.3147    1.0000 </r>
       <r>   -6.2910    1.0000 </r>
       <r>   -6.2693    1.0000 </r>
       <r>   -1.1320    1.0000 </r>
       <r>   -1.1320    1.0000 </r>
       <r>   -1.0842    1.0000 </r>
       <r>   -1.0320    1.0000 </r>
       <r>   -0.9499    1.0000 </r>
       <r>   -0.8940    1.0000 </r>
       <r>   -0.7840    1.0000 </r>
       <r>   -0.7678    1.0000 </r>
       <r>   -0.6884    1.0000 </r>
       <r>   -0.5831    1.0000 </r>
       <r>   -0.4951    1.0000 </r>
       <r>   -0.4873    1.0000 </r>
       <r>    5.4490    0.0000 </r>
       <r>    5.6201    0.0000 </r>
       <r>    5.8077    0.0000 </r>
       <r>    6.3066    0.0000 </r>
       <r>    6.3923    0.0000 </r>
       <r>    6.4871    0.0000 </r>
       <r>    6.7415    0.0000 </r>
       <r>    6.9456    0.0000 </r>
      </set>
      <set comment="kpoint 5">
       <r>  -19.7676    1.0000 </r>
       <r>  -19.7052    1.0000 </r>
       <r>  -19.6470    1.0000 </r>
       <r>  -19.6391    1.0000 </r>
       <r>  -12.5605    1.0000 </r>
       <r>  -12.5406    1.0000 </r>
       <r>  -12.4644    1.0000 </r>
       <r>  -12.4555    1.0000 </r>
       <r>   -6.9363    1.0000 </r>
       <r>   -6.9091    1.0000 </r>
       <r>   -6.7506    1.0000 </r>
       <r>   -6.7306    1.0000 </r>
       <r>   -6.7120    1.0000 </r>
       <r>   -6.7120    1.0000 </r>
       <r>   -6.4469    1.0000 </r>
       <r>   -6.3858    1.0000 </r>
       <r>   -6.3767    1.0000 </r>
       <r>   -6.3147    1.0000 </r>
       <r>   -6.2910    1.0000 </r>
       <r>   -6.2693    1.0000 </r>
       <r>   -1.1320    1.0000 </r>
       <r>   -1.1320    1.0000 </r>
       <r>   -1.0842    1.0000 </r>
       <r>   -1.0320    1.0000 </r>
       <r>   -0.9499    1.0000 </r>
       <r>   -0.8940    1.0000 </r>
       <r>   -0.7840    1.0000 </r>
       <r>   -0.7678    1.0000 </r>
       <r>   -0.6884    1.0000 </r>
       <r>   -0.5831    1.0000 </r>
       <r>   -0.4951    1.0000 </r>
       <r>   -0.4873    1.0000 </r>
       <r>    5.4490    0.0000 </r>
       <r>    5.6201    0.0000 </r>
       <r>    5.8077    0.0000 </r>
       <r>    6.3065    0.0000 </r>
       <r>    6.3923    0.0000 </r>
       <r>    6.4871    0.0000 </r>
       <r>    6.7415    0.0000 </r>
       <r>    6.9455    0.0000 </r>
      </set>
      <set comment="kpoint 6">
       <r>  -19.7387    1.0000 </r>
       <r>  -19.7366    1.0000 </r>
       <r>  -19.6428    1.0000 </r>
       <r>  -19.6407    1.0000 </r>
       <r>  -12.5579    1.0000 </r>
       <r>  -12.5571    1.0000 </r>
       <r>  -12.4598    1.0000 </r>
       <r>  -12.4582    1.0000 </r>
       <r>   -6.8324    1.0000 </r>
       <r>   -6.8307    1.0000 </r>
       <r>   -6.8087    1.0000 </r>
       <r>   -6.8067    1.0000 </r>
       <r>   -6.5986    1.0000 </r>
       <r>   -6.5968    1.0000 </r>
       <r>   -6.5062    1.0000 </r>
       <r>   -6.5041    1.0000 </r>
       <r>   -6.3413    1.0000 </r>
       <r>   -6.3393    1.0000 </r>
       <r>   -6.2994    1.0000 </r>
       <r>   -6.2976    1.0000 </r>
       <r>   -1.1416    1.0000 </r>
       <r>   -1.1406    1.0000 </r>
       <r>   -1.0583    1.0000 </r>
       <r>   -1.0576    1.0000 </r>
       <r>   -0.9937    1.0000 </r>
       <r>   -0.9925    1.0000 </r>
       <r>   -0.8298    1.0000 </r>
       <r>   -0.8271    1.0000 </r>
       <r>   -0.6170    1.0000 </r>
       <r>   -0.6127    1.0000 </r>
       <r>   -0.5541    1.0000 </r>
       <r>   -0.5510    1.0000 </r>
       <r>    5.9300    0.0000 </r>
       <r>    5.9321    0.0000 </r>
       <r>    6.2601    0.0000 </r>
       <r>    6.2640    0.0000 </r>
       <r>    6.6760    0.0000 </r>
       <r>    6.6789    0.0000 </r>
       <r>    6.7758    0.0000 </r>
       <r>    6.7769    0.0000 </r>
      </set>
      <set comment="kpoint 7">
       <r>  -19.7387    1.0000 </r>
       <r>  -19.7366    1.0000 </r>
       <r>  -19.6428    1.0000 </r>
       <r>  -19.6407    1.0000 </r>
       <r>  -12.5581    1.0000 </r>
       <r>  -12.5569    1.0000 </r>
       <r>  -12.4602    1.0000 </r>
       <r>  -12.4578    1.0000 </r>
       <r>   -6.8325    1.0000 </r>
       <r>   -6.8307    1.0000 </r>
       <r>   -6.8082    1.0000 </r>
       <r>   -6.8072    1.0000 </r>
       <r>   -6.5989    1.0000 </r>
       <r>   -6.5964    1.0000 </r>
       <r>   -6.5060    1.0000 </r>
       <r>   -6.5044    1.0000 </r>
       <r>   -6.3412    1.0000 </r>
       <r>   -6.3394    1.0000 </r>
       <r>   -6.2993    1.0000 </r>
       <r>   -6.2977    1.0000 </r>
       <r>   -1.1417    1.0000 </r>
       <r>   -1.1405    1.0000 </r>
       <r>   -1.0587    1.0000 </r>
       <r>   -1.0572    1.0000 </r>
       <r>   -0.9937    1.0000 </r>
       <r>   -0.9925    1.0000 </r>
       <r>   -0.8287    1.0000 </r>
       <r>   -0.8282    1.0000 </r>
       <r>   -0.6165    1.0000 </r>
       <r>   -0.6133    1.0000 </r>
       <r>   -0.5537    1.0000 </r>
       <r>   -0.5515    1.0000 </r>
       <r>    5.9302    0.0000 </r>
       <r>    5.9319    0.0000 </r>
       <r>    6.2592    0.0000 </r>
       <r>    6.2648    0.0000 </r>
       <r>    6.6766    0.0000 </r>
       <r>    6.6782    0.0000 </r>
       <r>    6.7713    0.0000 </r>
       <r>    6.7815    0.0000 </r>
      </set>
      <set comment="kpoint 8">
       <r>  -19.7773    1.0000 </r>
       <r>  -19.6721    1.0000 </r>
       <r>  -19.6720    1.0000 </r>
       <r>  -19.6380    1.0000 </r>
       <r>  -12.5615    1.0000 </r>
       <r>  -12.4992    1.0000 </r>
       <r>  -12.4984    1.0000 </r>
       <r>  -12.4491    1.0000 </r>
       <r>   -6.9797    1.0000 </r>
       <r>   -6.9797    1.0000 </r>
       <r>   -6.7552    1.0000 </r>
       <r>   -6.7547    1.0000 </r>
       <r>   -6.5654    1.0000 </r>
       <r>   -6.5654    1.0000 </r>
       <r>   -6.5489    1.0000 </r>
       <r>   -6.5489    1.0000 </r>
       <r>   -6.4367    1.0000 </r>
       <r>   -6.2742    1.0000 </r>
       <r>   -6.2611    1.0000 </r>
       <r>   -6.2611    1.0000 </r>
       <r>   -0.9877    1.0000 </r>
       <r>   -0.9876    1.0000 </r>
       <r>   -0.9786    1.0000 </r>
       <r>   -0.9785    1.0000 </r>
       <r>   -0.9584    1.0000 </r>
       <r>   -0.9554    1.0000 </r>
       <r>   -0.7462    1.0000 </r>
       <r>   -0.7446    1.0000 </r>
       <r>   -0.7386    1.0000 </r>
       <r>   -0.7326    1.0000 </r>
       <r>   -0.4487    1.0000 </r>
       <r>   -0.4487    1.0000 </r>
       <r>    5.1948    0.0000 </r>
       <r>    5.3975    0.0000 </r>
       <r>    5.6651    0.0000 </r>
       <r>    6.2041    0.0000 </r>
       <r>    6.3104    0.0000 </r>
       <r>    6.9967    0.0000 </r>
       <r>    7.0021    0.0000 </r>
       <r>    7.3975    0.0000 </r>
      </set>
      <set comment="kpoint 9">
       <r>  -19.7558    1.0000 </r>
       <r>  -19.7067    1.0000 </r>
       <r>  -19.6716    1.0000 </r>
       <r>  -19.6248    1.0000 </r>
       <r>  -12.5695    1.0000 </r>
       <r>  -12.5328    1.0000 </r>
       <r>  -12.4971    1.0000 </r>
       <r>  -12.4336    1.0000 </r>
       <r>   -6.9138    1.0000 </r>
       <r>   -6.9108    1.0000 </r>
       <r>   -6.6840    1.0000 </r>
       <r>   -6.6393    1.0000 </r>
       <r>   -6.6027    1.0000 </r>
       <r>   -6.5742    1.0000 </r>
       <r>   -6.5542    1.0000 </r>
       <r>   -6.5045    1.0000 </r>
       <r>   -6.4666    1.0000 </r>
       <r>   -6.4382    1.0000 </r>
       <r>   -6.2413    1.0000 </r>
       <r>   -6.2349    1.0000 </r>
       <r>   -1.1555    1.0000 </r>
       <r>   -1.1284    1.0000 </r>
       <r>   -1.0255    1.0000 </r>
       <r>   -0.9714    1.0000 </r>
       <r>   -0.9607    1.0000 </r>
       <r>   -0.9297    1.0000 </r>
       <r>   -0.8952    1.0000 </r>
       <r>   -0.8036    1.0000 </r>
       <r>   -0.7690    1.0000 </r>
       <r>   -0.7271    1.0000 </r>
       <r>   -0.5172    1.0000 </r>
       <r>   -0.5050    1.0000 </r>
       <r>    5.4670    0.0000 </r>
       <r>    5.9851    0.0000 </r>
       <r>    6.4534    0.0000 </r>
       <r>    6.7741    0.0000 </r>
       <r>    6.7802    0.0000 </r>
       <r>    6.8676    0.0000 </r>
       <r>    7.0686    0.0000 </r>
       <r>    7.0782    0.0000 </r>
      </set>
      <set comment="kpoint 10">
       <r>  -19.7558    1.0000 </r>
       <r>  -19.7067    1.0000 </r>
       <r>  -19.6716    1.0000 </r>
       <r>  -19.6248    1.0000 </r>
       <r>  -12.5695    1.0000 </r>
       <r>  -12.5328    1.0000 </r>
       <r>  -12.4971    1.0000 </r>
       <r>  -12.4336    1.0000 </r>
       <r>   -6.9138    1.0000 </r>
       <r>   -6.9108    1.0000 </r>
       <r>   -6.6840    1.0000 </r>
       <r>   -6.6393    1.0000 </r>
       <r>   -6.6027    1.0000 </r>
       <r>   -6.5742    1.0000 </r>
       <r>   -6.5542    1.0000 </r>
       <r>   -6.5045    1.0000 </r>
       <r>   -6.4666    1.0000 </r>
       <r>   -6.4381    1.0000 </r>
       <r>   -6.2413    1.0000 </r>
       <r>   -6.2349    1.0000 </r>
       <r>   -1.1555    1.0000 </r>
       <r>   -1.1284    1.0000 </r>
       <r>   -1.0255    1.0000 </r>
       <r>   -0.9714    1.0000 </r>
       <r>   -0.9606    1.0000 </r>
       <r>   -0.9297    1.0000 </r>
       <r>   -0.8952    1.0000 </r>
       <r>   -0.8036    1.0000 </r>
       <r>   -0.7690    1.0000 </r>
       <r>   -0.7272    1.0000 </r>
       <r>   -0.5172    1.0000 </r>
       <r>   -0.5050    1.0000 </r>
       <r>    5.4670    0.0000 </r>
       <r>    5.9851    0.0000 </r>
       <r>    6.4533    0.0000 </r>
       <r>    6.7739    0.0000 </r>
       <r>    6.7801    0.0000 </r>
       <r>    6.8677    0.0000 </r>
       <r>    7.0686    0.0000 </r>
       <r>    7.0787    0.0000 </r>
      </set>
      <set comment="kpoint 11">
       <r>  -19.7413    1.0000 </r>
       <r>  -19.7297    1.0000 </r>
       <r>  -19.6715    1.0000 </r>
       <r>  -19.6156    1.0000 </r>
       <r>  -12.5706    1.0000 </r>
       <r>  -12.5534    1.0000 </r>
       <r>  -12.4991    1.0000 </r>
       <r>  -12.4230    1.0000 </r>
       <r>   -6.8320    1.0000 </r>
       <r>   -6.8263    1.0000 </r>
       <r>   -6.8146    1.0000 </r>
       <r>   -6.7305    1.0000 </r>
       <r>   -6.7147    1.0000 </r>
       <r>   -6.6625    1.0000 </r>
       <r>   -6.4567    1.0000 </r>
       <r>   -6.4567    1.0000 </r>
       <r>   -6.3342    1.0000 </r>
       <r>   -6.3261    1.0000 </r>
       <r>   -6.2460    1.0000 </r>
       <r>   -6.2442    1.0000 </r>
       <r>   -1.2923    1.0000 </r>
       <r>   -1.2529    1.0000 </r>
       <r>   -1.2308    1.0000 </r>
       <r>   -1.0845    1.0000 </r>
       <r>   -1.0430    1.0000 </r>
       <r>   -0.8684    1.0000 </r>
       <r>   -0.8601    1.0000 </r>
       <r>   -0.6699    1.0000 </r>
       <r>   -0.6186    1.0000 </r>
       <r>   -0.6102    1.0000 </r>
       <r>   -0.6097    1.0000 </r>
       <r>   -0.5449    1.0000 </r>
       <r>    5.8805    0.0000 </r>
       <r>    6.1648    0.0000 </r>
       <r>    6.1648    0.0000 </r>
       <r>    6.2472    0.0000 </r>
       <r>    6.5580    0.0000 </r>
       <r>    6.5608    0.0000 </r>
       <r>    6.6893    0.0000 </r>
       <r>    7.1601    0.0000 </r>
      </set>
      <set comment="kpoint 12">
       <r>  -19.7413    1.0000 </r>
       <r>  -19.7297    1.0000 </r>
       <r>  -19.6715    1.0000 </r>
       <r>  -19.6156    1.0000 </r>
       <r>  -12.5706    1.0000 </r>
       <r>  -12.5534    1.0000 </r>
       <r>  -12.4991    1.0000 </r>
       <r>  -12.4230    1.0000 </r>
       <r>   -6.8320    1.0000 </r>
       <r>   -6.8263    1.0000 </r>
       <r>   -6.8146    1.0000 </r>
       <r>   -6.7305    1.0000 </r>
       <r>   -6.7147    1.0000 </r>
       <r>   -6.6625    1.0000 </r>
       <r>   -6.4567    1.0000 </r>
       <r>   -6.4567    1.0000 </r>
       <r>   -6.3342    1.0000 </r>
       <r>   -6.3261    1.0000 </r>
       <r>   -6.2460    1.0000 </r>
       <r>   -6.2442    1.0000 </r>
       <r>   -1.2923    1.0000 </r>
       <r>   -1.2529    1.0000 </r>
       <r>   -1.2308    1.0000 </r>
       <r>   -1.0845    1.0000 </r>
       <r>   -1.0430    1.0000 </r>
       <r>   -0.8684    1.0000 </r>
       <r>   -0.8601    1.0000 </r>
       <r>   -0.6699    1.0000 </r>
       <r>   -0.6184    1.0000 </r>
       <r>   -0.6102    1.0000 </r>
       <r>   -0.6099    1.0000 </r>
       <r>   -0.5449    1.0000 </r>
       <r>    5.8805    0.0000 </r>
       <r>    6.1648    0.0000 </r>
       <r>    6.1648    0.0000 </r>
       <r>    6.2472    0.0000 </r>
       <r>    6.5566    0.0000 </r>
       <r>    6.5621    0.0000 </r>
       <r>    6.6893    0.0000 </r>
       <r>    7.1589    0.0000 </r>
      </set>
      <set comment="kpoint 13">
       <r>  -19.7695    1.0000 </r>
       <r>  -19.7054    1.0000 </r>
       <r>  -19.6690    1.0000 </r>
       <r>  -19.6141    1.0000 </r>
       <r>  -12.5593    1.0000 </r>
       <r>  -12.5580    1.0000 </r>
       <r>  -12.4961    1.0000 </r>
       <r>  -12.4212    1.0000 </r>
       <r>   -6.9213    1.0000 </r>
       <r>   -6.8446    1.0000 </r>
       <r>   -6.8283    1.0000 </r>
       <r>   -6.8223    1.0000 </r>
       <r>   -6.7670    1.0000 </r>
       <r>   -6.7360    1.0000 </r>
       <r>   -6.4037    1.0000 </r>
       <r>   -6.3492    1.0000 </r>
       <r>   -6.3145    1.0000 </r>
       <r>   -6.2743    1.0000 </r>
       <r>   -6.2741    1.0000 </r>
       <r>   -6.1594    1.0000 </r>
       <r>   -1.3062    1.0000 </r>
       <r>   -1.2806    1.0000 </r>
       <r>   -1.2798    1.0000 </r>
       <r>   -1.1031    1.0000 </r>
       <r>   -0.9935    1.0000 </r>
       <r>   -0.8107    1.0000 </r>
       <r>   -0.7372    1.0000 </r>
       <r>   -0.7349    1.0000 </r>
       <r>   -0.5452    1.0000 </r>
       <r>   -0.5389    1.0000 </r>
       <r>   -0.4983    1.0000 </r>
       <r>   -0.4876    1.0000 </r>
       <r>    5.4871    0.0000 </r>
       <r>    5.5940    0.0000 </r>
       <r>    5.6410    0.0000 </r>
       <r>    5.9327    0.0000 </r>
       <r>    6.1886    0.0000 </r>
       <r>    6.3253    0.0000 </r>
       <r>    6.9359    0.0000 </r>
       <r>    7.2070    0.0000 </r>
      </set>
      <set comment="kpoint 14">
       <r>  -19.7695    1.0000 </r>
       <r>  -19.7054    1.0000 </r>
       <r>  -19.6690    1.0000 </r>
       <r>  -19.6141    1.0000 </r>
       <r>  -12.5593    1.0000 </r>
       <r>  -12.5579    1.0000 </r>
       <r>  -12.4961    1.0000 </r>
       <r>  -12.4212    1.0000 </r>
       <r>   -6.9213    1.0000 </r>
       <r>   -6.8446    1.0000 </r>
       <r>   -6.8283    1.0000 </r>
       <r>   -6.8223    1.0000 </r>
       <r>   -6.7670    1.0000 </r>
       <r>   -6.7360    1.0000 </r>
       <r>   -6.4037    1.0000 </r>
       <r>   -6.3492    1.0000 </r>
       <r>   -6.3145    1.0000 </r>
       <r>   -6.2743    1.0000 </r>
       <r>   -6.2741    1.0000 </r>
       <r>   -6.1594    1.0000 </r>
       <r>   -1.3062    1.0000 </r>
       <r>   -1.2805    1.0000 </r>
       <r>   -1.2799    1.0000 </r>
       <r>   -1.1030    1.0000 </r>
       <r>   -0.9935    1.0000 </r>
       <r>   -0.8107    1.0000 </r>
       <r>   -0.7372    1.0000 </r>
       <r>   -0.7349    1.0000 </r>
       <r>   -0.5452    1.0000 </r>
       <r>   -0.5389    1.0000 </r>
       <r>   -0.4983    1.0000 </r>
       <r>   -0.4877    1.0000 </r>
       <r>    5.4871    0.0000 </r>
       <r>    5.5940    0.0000 </r>
       <r>    5.6410    0.0000 </r>
       <r>    5.9327    0.0000 </r>
       <r>    6.1886    0.0000 </r>
       <r>    6.3253    0.0000 </r>
       <r>    6.9359    0.0000 </r>
       <r>    7.2070    0.0000 </r>
      </set>
      <set comment="kpoint 15">
       <r>  -19.7862    1.0000 </r>
       <r>  -19.6870    1.0000 </r>
       <r>  -19.6624    1.0000 </r>
       <r>  -19.6229    1.0000 </r>
       <r>  -12.5566    1.0000 </r>
       <r>  -12.5350    1.0000 </r>
       <r>  -12.4846    1.0000 </r>
       <r>  -12.4335    1.0000 </r>
       <r>   -6.9883    1.0000 </r>
       <r>   -6.9468    1.0000 </r>
       <r>   -6.8936    1.0000 </r>
       <r>   -6.8886    1.0000 </r>
       <r>   -6.7237    1.0000 </r>
       <r>   -6.6578    1.0000 </r>
       <r>   -6.4120    1.0000 </r>
       <r>   -6.3490    1.0000 </r>
       <r>   -6.3351    1.0000 </r>
       <r>   -6.3030    1.0000 </r>
       <r>   -6.2765    1.0000 </r>
       <r>   -6.0877    1.0000 </r>
       <r>   -1.2651    1.0000 </r>
       <r>   -1.2177    1.0000 </r>
       <r>   -1.2041    1.0000 </r>
       <r>   -0.9733    1.0000 </r>
       <r>   -0.8991    1.0000 </r>
       <r>   -0.8494    1.0000 </r>
       <r>   -0.7979    1.0000 </r>
       <r>   -0.5604    1.0000 </r>
       <r>   -0.5332    1.0000 </r>
       <r>   -0.4659    1.0000 </r>
       <r>   -0.4360    1.0000 </r>
       <r>   -0.4218    1.0000 </r>
       <r>    5.1116    0.0000 </r>
       <r>    5.1710    0.0000 </r>
       <r>    5.2802    0.0000 </r>
       <r>    5.6458    0.0000 </r>
       <r>    5.8376    0.0000 </r>
       <r>    6.6957    0.0000 </r>
       <r>    6.9575    0.0000 </r>
       <r>    7.0161    0.0000 </r>
      </set>
      <set comment="kpoint 16">
       <r>  -19.7388    1.0000 </r>
       <r>  -19.7059    1.0000 </r>
       <r>  -19.7059    1.0000 </r>
       <r>  -19.6070    1.0000 </r>
       <r>  -12.5814    1.0000 </r>
       <r>  -12.5335    1.0000 </r>
       <r>  -12.5329    1.0000 </r>
       <r>  -12.4107    1.0000 </r>
       <r>   -6.8671    1.0000 </r>
       <r>   -6.8671    1.0000 </r>
       <r>   -6.6932    1.0000 </r>
       <r>   -6.6408    1.0000 </r>
       <r>   -6.6407    1.0000 </r>
       <r>   -6.6385    1.0000 </r>
       <r>   -6.5321    1.0000 </r>
       <r>   -6.5320    1.0000 </r>
       <r>   -6.3750    1.0000 </r>
       <r>   -6.3748    1.0000 </r>
       <r>   -6.1942    1.0000 </r>
       <r>   -6.1942    1.0000 </r>
       <r>   -1.2960    1.0000 </r>
       <r>   -1.2959    1.0000 </r>
       <r>   -1.2903    1.0000 </r>
       <r>   -1.2368    1.0000 </r>
       <r>   -0.9498    1.0000 </r>
       <r>   -0.9489    1.0000 </r>
       <r>   -0.7486    1.0000 </r>
       <r>   -0.7459    1.0000 </r>
       <r>   -0.6912    1.0000 </r>
       <r>   -0.6911    1.0000 </r>
       <r>   -0.5603    1.0000 </r>
       <r>   -0.5603    1.0000 </r>
       <r>    5.6658    0.0000 </r>
       <r>    6.5181    0.0000 </r>
       <r>    6.5485    0.0000 </r>
       <r>    6.5488    0.0000 </r>
       <r>    6.8852    0.0000 </r>
       <r>    6.8858    0.0000 </r>
       <r>    7.2338    0.0000 </r>
       <r>    7.2519    0.0000 </r>
      </set>
      <set comment="kpoint 17">
       <r>  -19.7368    1.0000 </r>
       <r>  -19.7223    1.0000 </r>
       <r>  -19.6999    1.0000 </r>
       <r>  -19.5977    1.0000 </r>
       <r>  -12.5860    1.0000 </r>
       <r>  -12.5546    1.0000 </r>
       <r>  -12.5322    1.0000 </r>
       <r>  -12.3993    1.0000 </r>
       <r>   -6.8189    1.0000 </r>
       <r>   -6.8135    1.0000 </r>
       <r>   -6.7852    1.0000 </r>
       <r>   -6.7696    1.0000 </r>
       <r>   -6.7661    1.0000 </r>
       <r>   -6.6183    1.0000 </r>
       <r>   -6.5771    1.0000 </r>
       <r>   -6.4297    1.0000 </r>
       <r>   -6.2524    1.0000 </r>
       <r>   -6.2048    1.0000 </r>
       <r>   -6.1871    1.0000 </r>
       <r>   -6.1814    1.0000 </r>
       <r>   -1.4441    1.0000 </r>
       <r>   -1.4106    1.0000 </r>
       <r>   -1.3996    1.0000 </r>
       <r>   -1.3446    1.0000 </r>
       <r>   -1.0573    1.0000 </r>
       <r>   -0.9680    1.0000 </r>
       <r>   -0.7259    1.0000 </r>
       <r>   -0.6192    1.0000 </r>
       <r>   -0.6131    1.0000 </r>
       <r>   -0.5923    1.0000 </r>
       <r>   -0.5648    1.0000 </r>
       <r>   -0.5507    1.0000 </r>
       <r>    5.8916    0.0000 </r>
       <r>    5.9536    0.0000 </r>
       <r>    6.0789    0.0000 </r>
       <r>    6.3441    0.0000 </r>
       <r>    6.5837    0.0000 </r>
       <r>    6.6017    0.0000 </r>
       <r>    6.9655    0.0000 </r>
       <r>    7.7285    0.0000 </r>
      </set>
      <set comment="kpoint 18">
       <r>  -19.7368    1.0000 </r>
       <r>  -19.7223    1.0000 </r>
       <r>  -19.6999    1.0000 </r>
       <r>  -19.5977    1.0000 </r>
       <r>  -12.5860    1.0000 </r>
       <r>  -12.5546    1.0000 </r>
       <r>  -12.5322    1.0000 </r>
       <r>  -12.3993    1.0000 </r>
       <r>   -6.8189    1.0000 </r>
       <r>   -6.8135    1.0000 </r>
       <r>   -6.7852    1.0000 </r>
       <r>   -6.7696    1.0000 </r>
       <r>   -6.7661    1.0000 </r>
       <r>   -6.6183    1.0000 </r>
       <r>   -6.5771    1.0000 </r>
       <r>   -6.4297    1.0000 </r>
       <r>   -6.2524    1.0000 </r>
       <r>   -6.2048    1.0000 </r>
       <r>   -6.1871    1.0000 </r>
       <r>   -6.1814    1.0000 </r>
       <r>   -1.4441    1.0000 </r>
       <r>   -1.4106    1.0000 </r>
       <r>   -1.3996    1.0000 </r>
       <r>   -1.3446    1.0000 </r>
       <r>   -1.0573    1.0000 </r>
       <r>   -0.9680    1.0000 </r>
       <r>   -0.7259    1.0000 </r>
       <r>   -0.6190    1.0000 </r>
       <r>   -0.6133    1.0000 </r>
       <r>   -0.5923    1.0000 </r>
       <r>   -0.5648    1.0000 </r>
       <r>   -0.5507    1.0000 </r>
       <r>    5.8916    0.0000 </r>
       <r>    5.9536    0.0000 </r>
       <r>    6.0789    0.0000 </r>
       <r>    6.3441    0.0000 </r>
       <r>    6.5837    0.0000 </r>
       <r>    6.6017    0.0000 </r>
       <r>    6.9655    0.0000 </r>
       <r>    7.7283    0.0000 </r>
      </set>
      <set comment="kpoint 19">
       <r>  -19.7590    1.0000 </r>
       <r>  -19.7106    1.0000 </r>
       <r>  -19.6874    1.0000 </r>
       <r>  -19.5997    1.0000 </r>
       <r>  -12.5769    1.0000 </r>
       <r>  -12.5606    1.0000 </r>
       <r>  -12.5205    1.0000 </r>
       <r>  -12.4020    1.0000 </r>
       <r>   -6.8635    1.0000 </r>
       <r>   -6.8373    1.0000 </r>
       <r>   -6.8350    1.0000 </r>
       <r>   -6.7892    1.0000 </r>
       <r>   -6.7679    1.0000 </r>
       <r>   -6.7349    1.0000 </r>
       <r>   -6.4952    1.0000 </r>
       <r>   -6.3588    1.0000 </r>
       <r>   -6.2357    1.0000 </r>
       <r>   -6.2314    1.0000 </r>
       <r>   -6.2077    1.0000 </r>
       <r>   -6.1220    1.0000 </r>
       <r>   -1.4265    1.0000 </r>
       <r>   -1.4045    1.0000 </r>
       <r>   -1.3737    1.0000 </r>
       <r>   -1.3112    1.0000 </r>
       <r>   -1.0430    1.0000 </r>
       <r>   -0.8753    1.0000 </r>
       <r>   -0.7377    1.0000 </r>
       <r>   -0.6821    1.0000 </r>
       <r>   -0.5762    1.0000 </r>
       <r>   -0.5339    1.0000 </r>
       <r>   -0.5063    1.0000 </r>
       <r>   -0.4782    1.0000 </r>
       <r>    5.5211    0.0000 </r>
       <r>    5.8435    0.0000 </r>
       <r>    5.8750    0.0000 </r>
       <r>    6.0319    0.0000 </r>
       <r>    6.1881    0.0000 </r>
       <r>    6.3256    0.0000 </r>
       <r>    7.1508    0.0000 </r>
       <r>    7.6515    0.0000 </r>
      </set>
      <set comment="kpoint 20">
       <r>  -19.7232    1.0000 </r>
       <r>  -19.7227    1.0000 </r>
       <r>  -19.7187    1.0000 </r>
       <r>  -19.5913    1.0000 </r>
       <r>  -12.5928    1.0000 </r>
       <r>  -12.5507    1.0000 </r>
       <r>  -12.5502    1.0000 </r>
       <r>  -12.3913    1.0000 </r>
       <r>   -6.8086    1.0000 </r>
       <r>   -6.8073    1.0000 </r>
       <r>   -6.8073    1.0000 </r>
       <r>   -6.8073    1.0000 </r>
       <r>   -6.6847    1.0000 </r>
       <r>   -6.6845    1.0000 </r>
       <r>   -6.5071    1.0000 </r>
       <r>   -6.5070    1.0000 </r>
       <r>   -6.1741    1.0000 </r>
       <r>   -6.1739    1.0000 </r>
       <r>   -6.1597    1.0000 </r>
       <r>   -6.1596    1.0000 </r>
       <r>   -1.5317    1.0000 </r>
       <r>   -1.4541    1.0000 </r>
       <r>   -1.4541    1.0000 </r>
       <r>   -1.4541    1.0000 </r>
       <r>   -1.0677    1.0000 </r>
       <r>   -1.0673    1.0000 </r>
       <r>   -0.6460    1.0000 </r>
       <r>   -0.6435    1.0000 </r>
       <r>   -0.6184    1.0000 </r>
       <r>   -0.6182    1.0000 </r>
       <r>   -0.5160    1.0000 </r>
       <r>   -0.5158    1.0000 </r>
       <r>    5.8572    0.0000 </r>
       <r>    5.8573    0.0000 </r>
       <r>    6.0111    0.0000 </r>
       <r>    6.4668    0.0000 </r>
       <r>    6.4669    0.0000 </r>
       <r>    7.1414    0.0000 </r>
       <r>    7.1572    0.0000 </r>
       <r>    7.1600    0.0000 </r>
      </set>
      <set comment="kpoint 21">
       <r>  -19.7888    1.0000 </r>
       <r>  -19.6604    1.0000 </r>
       <r>  -19.6546    1.0000 </r>
       <r>  -19.6542    1.0000 </r>
       <r>  -12.5558    1.0000 </r>
       <r>  -12.4813    1.0000 </r>
       <r>  -12.4792    1.0000 </r>
       <r>  -12.4782    1.0000 </r>
       <r>   -7.0000    1.0000 </r>
       <r>   -6.9688    1.0000 </r>
       <r>   -6.9405    1.0000 </r>
       <r>   -6.9397    1.0000 </r>
       <r>   -6.7620    1.0000 </r>
       <r>   -6.7619    1.0000 </r>
       <r>   -6.3361    1.0000 </r>
       <r>   -6.3357    1.0000 </r>
       <r>   -6.3341    1.0000 </r>
       <r>   -6.3000    1.0000 </r>
       <r>   -6.2809    1.0000 </r>
       <r>   -6.0846    1.0000 </r>
       <r>   -1.0618    1.0000 </r>
       <r>   -1.0617    1.0000 </r>
       <r>   -1.0038    1.0000 </r>
       <r>   -1.0011    1.0000 </r>
       <r>   -0.8796    1.0000 </r>
       <r>   -0.8034    1.0000 </r>
       <r>   -0.6359    1.0000 </r>
       <r>   -0.6344    1.0000 </r>
       <r>   -0.5203    1.0000 </r>
       <r>   -0.4605    1.0000 </r>
       <r>   -0.4256    1.0000 </r>
       <r>   -0.4152    1.0000 </r>
       <r>    5.0369    0.0000 </r>
       <r>    5.1259    0.0000 </r>
       <r>    5.2103    0.0000 </r>
       <r>    5.6213    0.0000 </r>
       <r>    5.7804    0.0000 </r>
       <r>    6.4701    0.0000 </r>
       <r>    6.4735    0.0000 </r>
       <r>    6.5961    0.0000 </r>
      </set>
      <set comment="kpoint 22">
       <r>  -19.7815    1.0000 </r>
       <r>  -19.6743    1.0000 </r>
       <r>  -19.6580    1.0000 </r>
       <r>  -19.6441    1.0000 </r>
       <r>  -12.5580    1.0000 </r>
       <r>  -12.5076    1.0000 </r>
       <r>  -12.4792    1.0000 </r>
       <r>  -12.4623    1.0000 </r>
       <r>   -6.9887    1.0000 </r>
       <r>   -6.9244    1.0000 </r>
       <r>   -6.8927    1.0000 </r>
       <r>   -6.8906    1.0000 </r>
       <r>   -6.8147    1.0000 </r>
       <r>   -6.6726    1.0000 </r>
       <r>   -6.4272    1.0000 </r>
       <r>   -6.3741    1.0000 </r>
       <r>   -6.3071    1.0000 </r>
       <r>   -6.2713    1.0000 </r>
       <r>   -6.2682    1.0000 </r>
       <r>   -6.1430    1.0000 </r>
       <r>   -1.1125    1.0000 </r>
       <r>   -1.0777    1.0000 </r>
       <r>   -1.0307    1.0000 </r>
       <r>   -0.9308    1.0000 </r>
       <r>   -0.8749    1.0000 </r>
       <r>   -0.8497    1.0000 </r>
       <r>   -0.7699    1.0000 </r>
       <r>   -0.6259    1.0000 </r>
       <r>   -0.5745    1.0000 </r>
       <r>   -0.5247    1.0000 </r>
       <r>   -0.4520    1.0000 </r>
       <r>   -0.4371    1.0000 </r>
       <r>    5.2186    0.0000 </r>
       <r>    5.2722    0.0000 </r>
       <r>    5.4084    0.0000 </r>
       <r>    5.8499    0.0000 </r>
       <r>    5.9572    0.0000 </r>
       <r>    6.3808    0.0000 </r>
       <r>    6.5754    0.0000 </r>
       <r>    6.6322    0.0000 </r>
      </set>
      <set comment="kpoint 23">
       <r>  -19.7815    1.0000 </r>
       <r>  -19.6743    1.0000 </r>
       <r>  -19.6580    1.0000 </r>
       <r>  -19.6441    1.0000 </r>
       <r>  -12.5580    1.0000 </r>
       <r>  -12.5076    1.0000 </r>
       <r>  -12.4792    1.0000 </r>
       <r>  -12.4623    1.0000 </r>
       <r>   -6.9887    1.0000 </r>
       <r>   -6.9244    1.0000 </r>
       <r>   -6.8927    1.0000 </r>
       <r>   -6.8907    1.0000 </r>
       <r>   -6.8147    1.0000 </r>
       <r>   -6.6726    1.0000 </r>
       <r>   -6.4272    1.0000 </r>
       <r>   -6.3741    1.0000 </r>
       <r>   -6.3071    1.0000 </r>
       <r>   -6.2713    1.0000 </r>
       <r>   -6.2682    1.0000 </r>
       <r>   -6.1430    1.0000 </r>
       <r>   -1.1125    1.0000 </r>
       <r>   -1.0777    1.0000 </r>
       <r>   -1.0307    1.0000 </r>
       <r>   -0.9308    1.0000 </r>
       <r>   -0.8750    1.0000 </r>
       <r>   -0.8496    1.0000 </r>
       <r>   -0.7699    1.0000 </r>
       <r>   -0.6259    1.0000 </r>
       <r>   -0.5745    1.0000 </r>
       <r>   -0.5247    1.0000 </r>
       <r>   -0.4520    1.0000 </r>
       <r>   -0.4370    1.0000 </r>
       <r>    5.2186    0.0000 </r>
       <r>    5.2722    0.0000 </r>
       <r>    5.4084    0.0000 </r>
       <r>    5.8499    0.0000 </r>
       <r>    5.9572    0.0000 </r>
       <r>    6.3808    0.0000 </r>
       <r>    6.5754    0.0000 </r>
       <r>    6.6322    0.0000 </r>
      </set>
      <set comment="kpoint 24">
       <r>  -19.7815    1.0000 </r>
       <r>  -19.6743    1.0000 </r>
       <r>  -19.6580    1.0000 </r>
       <r>  -19.6441    1.0000 </r>
       <r>  -12.5580    1.0000 </r>
       <r>  -12.5076    1.0000 </r>
       <r>  -12.4793    1.0000 </r>
       <r>  -12.4622    1.0000 </r>
       <r>   -6.9887    1.0000 </r>
       <r>   -6.9244    1.0000 </r>
       <r>   -6.8927    1.0000 </r>
       <r>   -6.8906    1.0000 </r>
       <r>   -6.8147    1.0000 </r>
       <r>   -6.6726    1.0000 </r>
       <r>   -6.4272    1.0000 </r>
       <r>   -6.3741    1.0000 </r>
       <r>   -6.3071    1.0000 </r>
       <r>   -6.2713    1.0000 </r>
       <r>   -6.2682    1.0000 </r>
       <r>   -6.1430    1.0000 </r>
       <r>   -1.1125    1.0000 </r>
       <r>   -1.0777    1.0000 </r>
       <r>   -1.0307    1.0000 </r>
       <r>   -0.9308    1.0000 </r>
       <r>   -0.8749    1.0000 </r>
       <r>   -0.8497    1.0000 </r>
       <r>   -0.7699    1.0000 </r>
       <r>   -0.6259    1.0000 </r>
       <r>   -0.5745    1.0000 </r>
       <r>   -0.5247    1.0000 </r>
       <r>   -0.4520    1.0000 </r>
       <r>   -0.4371    1.0000 </r>
       <r>    5.2186    0.0000 </r>
       <r>    5.2722    0.0000 </r>
       <r>    5.4084    0.0000 </r>
       <r>    5.8499    0.0000 </r>
       <r>    5.9572    0.0000 </r>
       <r>    6.3808    0.0000 </r>
       <r>    6.5754    0.0000 </r>
       <r>    6.6322    0.0000 </r>
      </set>
      <set comment="kpoint 25">
       <r>  -19.7815    1.0000 </r>
       <r>  -19.6743    1.0000 </r>
       <r>  -19.6580    1.0000 </r>
       <r>  -19.6441    1.0000 </r>
       <r>  -12.5580    1.0000 </r>
       <r>  -12.5076    1.0000 </r>
       <r>  -12.4792    1.0000 </r>
       <r>  -12.4623    1.0000 </r>
       <r>   -6.9887    1.0000 </r>
       <r>   -6.9244    1.0000 </r>
       <r>   -6.8927    1.0000 </r>
       <r>   -6.8907    1.0000 </r>
       <r>   -6.8147    1.0000 </r>
       <r>   -6.6726    1.0000 </r>
       <r>   -6.4272    1.0000 </r>
       <r>   -6.3741    1.0000 </r>
       <r>   -6.3071    1.0000 </r>
       <r>   -6.2713    1.0000 </r>
       <r>   -6.2682    1.0000 </r>
       <r>   -6.1430    1.0000 </r>
       <r>   -1.1125    1.0000 </r>
       <r>   -1.0777    1.0000 </r>
       <r>   -1.0307    1.0000 </r>
       <r>   -0.9308    1.0000 </r>
       <r>   -0.8750    1.0000 </r>
       <r>   -0.8496    1.0000 </r>
       <r>   -0.7698    1.0000 </r>
       <r>   -0.6259    1.0000 </r>
       <r>   -0.5745    1.0000 </r>
       <r>   -0.5247    1.0000 </r>
       <r>   -0.4520    1.0000 </r>
       <r>   -0.4370    1.0000 </r>
       <r>    5.2186    0.0000 </r>
       <r>    5.2722    0.0000 </r>
       <r>    5.4084    0.0000 </r>
       <r>    5.8499    0.0000 </r>
       <r>    5.9572    0.0000 </r>
       <r>    6.3808    0.0000 </r>
       <r>    6.5754    0.0000 </r>
       <r>    6.6322    0.0000 </r>
      </set>
      <set comment="kpoint 26">
       <r>  -19.7612    1.0000 </r>
       <r>  -19.7016    1.0000 </r>
       <r>  -19.6526    1.0000 </r>
       <r>  -19.6421    1.0000 </r>
       <r>  -12.5607    1.0000 </r>
       <r>  -12.5366    1.0000 </r>
       <r>  -12.4748    1.0000 </r>
       <r>  -12.4602    1.0000 </r>
       <r>   -6.9504    1.0000 </r>
       <r>   -6.8575    1.0000 </r>
       <r>   -6.8172    1.0000 </r>
       <r>   -6.7774    1.0000 </r>
       <r>   -6.7397    1.0000 </r>
       <r>   -6.5523    1.0000 </r>
       <r>   -6.5389    1.0000 </r>
       <r>   -6.4832    1.0000 </r>
       <r>   -6.3516    1.0000 </r>
       <r>   -6.3015    1.0000 </r>
       <r>   -6.2360    1.0000 </r>
       <r>   -6.2261    1.0000 </r>
       <r>   -1.1414    1.0000 </r>
       <r>   -1.0875    1.0000 </r>
       <r>   -1.0834    1.0000 </r>
       <r>   -1.0361    1.0000 </r>
       <r>   -0.9846    1.0000 </r>
       <r>   -0.8551    1.0000 </r>
       <r>   -0.8173    1.0000 </r>
       <r>   -0.7363    1.0000 </r>
       <r>   -0.6383    1.0000 </r>
       <r>   -0.5647    1.0000 </r>
       <r>   -0.5263    1.0000 </r>
       <r>   -0.4754    1.0000 </r>
       <r>    5.4946    0.0000 </r>
       <r>    5.8201    0.0000 </r>
       <r>    5.9689    0.0000 </r>
       <r>    6.1704    0.0000 </r>
       <r>    6.3740    0.0000 </r>
       <r>    6.4548    0.0000 </r>
       <r>    6.6854    0.0000 </r>
       <r>    6.8084    0.0000 </r>
      </set>
      <set comment="kpoint 27">
       <r>  -19.7612    1.0000 </r>
       <r>  -19.7016    1.0000 </r>
       <r>  -19.6526    1.0000 </r>
       <r>  -19.6421    1.0000 </r>
       <r>  -12.5607    1.0000 </r>
       <r>  -12.5367    1.0000 </r>
       <r>  -12.4748    1.0000 </r>
       <r>  -12.4602    1.0000 </r>
       <r>   -6.9504    1.0000 </r>
       <r>   -6.8575    1.0000 </r>
       <r>   -6.8172    1.0000 </r>
       <r>   -6.7774    1.0000 </r>
       <r>   -6.7397    1.0000 </r>
       <r>   -6.5523    1.0000 </r>
       <r>   -6.5389    1.0000 </r>
       <r>   -6.4832    1.0000 </r>
       <r>   -6.3516    1.0000 </r>
       <r>   -6.3015    1.0000 </r>
       <r>   -6.2360    1.0000 </r>
       <r>   -6.2261    1.0000 </r>
       <r>   -1.1414    1.0000 </r>
       <r>   -1.0874    1.0000 </r>
       <r>   -1.0835    1.0000 </r>
       <r>   -1.0361    1.0000 </r>
       <r>   -0.9845    1.0000 </r>
       <r>   -0.8551    1.0000 </r>
       <r>   -0.8173    1.0000 </r>
       <r>   -0.7363    1.0000 </r>
       <r>   -0.6383    1.0000 </r>
       <r>   -0.5646    1.0000 </r>
       <r>   -0.5264    1.0000 </r>
       <r>   -0.4753    1.0000 </r>
       <r>    5.4946    0.0000 </r>
       <r>    5.8200    0.0000 </r>
       <r>    5.9689    0.0000 </r>
       <r>    6.1705    0.0000 </r>
       <r>    6.3740    0.0000 </r>
       <r>    6.4548    0.0000 </r>
       <r>    6.6854    0.0000 </r>
       <r>    6.8084    0.0000 </r>
      </set>
      <set comment="kpoint 28">
       <r>  -19.7612    1.0000 </r>
       <r>  -19.7016    1.0000 </r>
       <r>  -19.6526    1.0000 </r>
       <r>  -19.6421    1.0000 </r>
       <r>  -12.5607    1.0000 </r>
       <r>  -12.5366    1.0000 </r>
       <r>  -12.4748    1.0000 </r>
       <r>  -12.4601    1.0000 </r>
       <r>   -6.9504    1.0000 </r>
       <r>   -6.8575    1.0000 </r>
       <r>   -6.8172    1.0000 </r>
       <r>   -6.7774    1.0000 </r>
       <r>   -6.7397    1.0000 </r>
       <r>   -6.5523    1.0000 </r>
       <r>   -6.5389    1.0000 </r>
       <r>   -6.4832    1.0000 </r>
       <r>   -6.3516    1.0000 </r>
       <r>   -6.3015    1.0000 </r>
       <r>   -6.2360    1.0000 </r>
       <r>   -6.2261    1.0000 </r>
       <r>   -1.1414    1.0000 </r>
       <r>   -1.0874    1.0000 </r>
       <r>   -1.0835    1.0000 </r>
       <r>   -1.0361    1.0000 </r>
       <r>   -0.9845    1.0000 </r>
       <r>   -0.8551    1.0000 </r>
       <r>   -0.8173    1.0000 </r>
       <r>   -0.7363    1.0000 </r>
       <r>   -0.6383    1.0000 </r>
       <r>   -0.5646    1.0000 </r>
       <r>   -0.5263    1.0000 </r>
       <r>   -0.4754    1.0000 </r>
       <r>    5.4946    0.0000 </r>
       <r>    5.8201    0.0000 </r>
       <r>    5.9689    0.0000 </r>
       <r>    6.1704    0.0000 </r>
       <r>    6.3740    0.0000 </r>
[...]
       <r>   -1.0614    1.0000 </r>
       <r>   -0.9037    1.0000 </r>
       <r>   -0.7369    1.0000 </r>
       <r>   -0.6494    1.0000 </r>
       <r>   -0.5939    1.0000 </r>
       <r>   -0.5920    1.0000 </r>
       <r>   -0.5846    1.0000 </r>
       <r>   -0.5577    1.0000 </r>
       <r>    5.8437    0.0000 </r>
       <r>    6.1037    0.0000 </r>
       <r>    6.3068    0.0000 </r>
       <r>    6.4061    0.0000 </r>
       <r>    6.4973    0.0000 </r>
       <r>    6.7237    0.0000 </r>
       <r>    6.7998    0.0000 </r>
       <r>    7.1305    0.0000 </r>
      </set>
      <set comment="kpoint 127">
       <r>  -19.7283    1.0000 </r>
       <r>  -19.7124    1.0000 </r>
       <r>  -19.6668    1.0000 </r>
       <r>  -19.6422    1.0000 </r>
       <r>  -12.5844    1.0000 </r>
       <r>  -12.5762    1.0000 </r>
       <r>  -12.4985    1.0000 </r>
       <r>  -12.4592    1.0000 </r>
       <r>   -6.9436    1.0000 </r>
       <r>   -6.9404    1.0000 </r>
       <r>   -6.8414    1.0000 </r>
       <r>   -6.8268    1.0000 </r>
       <r>   -6.7523    1.0000 </r>
       <r>   -6.7286    1.0000 </r>
       <r>   -6.3744    1.0000 </r>
       <r>   -6.2953    1.0000 </r>
       <r>   -6.2431    1.0000 </r>
       <r>   -6.1990    1.0000 </r>
       <r>   -6.1762    1.0000 </r>
       <r>   -6.1516    1.0000 </r>
       <r>   -1.4064    1.0000 </r>
       <r>   -1.3914    1.0000 </r>
       <r>   -1.0636    1.0000 </r>
       <r>   -1.0618    1.0000 </r>
       <r>   -1.0614    1.0000 </r>
       <r>   -0.9037    1.0000 </r>
       <r>   -0.7369    1.0000 </r>
       <r>   -0.6494    1.0000 </r>
       <r>   -0.5939    1.0000 </r>
       <r>   -0.5920    1.0000 </r>
       <r>   -0.5846    1.0000 </r>
       <r>   -0.5577    1.0000 </r>
       <r>    5.8437    0.0000 </r>
       <r>    6.1037    0.0000 </r>
       <r>    6.3068    0.0000 </r>
       <r>    6.4061    0.0000 </r>
       <r>    6.4974    0.0000 </r>
       <r>    6.7237    0.0000 </r>
       <r>    6.7998    0.0000 </r>
       <r>    7.1305    0.0000 </r>
      </set>
      <set comment="kpoint 128">
       <r>  -19.7195    1.0000 </r>
       <r>  -19.7194    1.0000 </r>
       <r>  -19.6690    1.0000 </r>
       <r>  -19.6406    1.0000 </r>
       <r>  -12.5908    1.0000 </r>
       <r>  -12.5907    1.0000 </r>
       <r>  -12.5048    1.0000 </r>
       <r>  -12.4596    1.0000 </r>
       <r>   -6.9141    1.0000 </r>
       <r>   -6.9111    1.0000 </r>
       <r>   -6.8057    1.0000 </r>
       <r>   -6.8056    1.0000 </r>
       <r>   -6.6579    1.0000 </r>
       <r>   -6.5717    1.0000 </r>
       <r>   -6.5205    1.0000 </r>
       <r>   -6.4282    1.0000 </r>
       <r>   -6.1743    1.0000 </r>
       <r>   -6.1742    1.0000 </r>
       <r>   -6.1604    1.0000 </r>
       <r>   -6.1604    1.0000 </r>
       <r>   -1.5100    1.0000 </r>
       <r>   -1.5096    1.0000 </r>
       <r>   -1.1551    1.0000 </r>
       <r>   -1.1349    1.0000 </r>
       <r>   -1.1319    1.0000 </r>
       <r>   -0.9704    1.0000 </r>
       <r>   -0.7742    1.0000 </r>
       <r>   -0.6190    1.0000 </r>
       <r>   -0.6190    1.0000 </r>
       <r>   -0.6135    1.0000 </r>
       <r>   -0.6134    1.0000 </r>
       <r>   -0.5751    1.0000 </r>
       <r>    6.0066    0.0000 </r>
       <r>    6.0067    0.0000 </r>
       <r>    6.7359    0.0000 </r>
       <r>    6.7731    0.0000 </r>
       <r>    7.1081    0.0000 </r>
       <r>    7.1089    0.0000 </r>
       <r>    7.1126    0.0000 </r>
       <r>    7.1890    0.0000 </r>
      </set>
     </set>
    </set>
   </array>
  </eigenvalues>
  <separator name="orbital magnetization" >
   <v name="MAGDIPOLOUT">      0.00000000      0.00000000      0.00000000</v>
  </separator>
  <dos>
   <i name="efermi">     -0.26861179 </i>
   <total>
    <array>
     <dimension dim="1">gridpoints</dimension>
     <dimension dim="2">spin</dimension>
     <field>energy</field>
     <field>total</field>
     <field>integrated</field>
     <set>
      <set comment="spin 1">
       <r>   -21.1725     0.0000     0.0000 </r>
       <r>   -21.0716     0.0000     0.0000 </r>
       <r>   -20.9707     0.0000     0.0000 </r>
       <r>   -20.8698     0.0000     0.0000 </r>
       <r>   -20.7688     0.0000     0.0000 </r>
       <r>   -20.6679     0.0000     0.0000 </r>
       <r>   -20.5670     0.0000     0.0000 </r>
       <r>   -20.4661     0.0000     0.0000 </r>
       <r>   -20.3651     0.0000     0.0000 </r>
       <r>   -20.2642     0.0000     0.0000 </r>
       <r>   -20.1633     0.0000     0.0000 </r>
       <r>   -20.0624     0.0000     0.0000 </r>
       <r>   -19.9614     0.0000     0.0000 </r>
       <r>   -19.8605     0.0000     0.0000 </r>
       <r>   -19.7596     4.5856     0.4628 </r>
       <r>   -19.6587    50.0470     5.9796 </r>
       <r>   -19.5577     8.4136     8.0000 </r>
       <r>   -19.4568     0.0000     8.0000 </r>
       <r>   -19.3559     0.0000     8.0000 </r>
       <r>   -19.2550     0.0000     8.0000 </r>
       <r>   -19.1540     0.0000     8.0000 </r>
       <r>   -19.0531     0.0000     8.0000 </r>
       <r>   -18.9522     0.0000     8.0000 </r>
       <r>   -18.8513     0.0000     8.0000 </r>
       <r>   -18.7503     0.0000     8.0000 </r>
       <r>   -18.6494     0.0000     8.0000 </r>
       <r>   -18.5485     0.0000     8.0000 </r>
       <r>   -18.4476     0.0000     8.0000 </r>
       <r>   -18.3466     0.0000     8.0000 </r>
       <r>   -18.2457     0.0000     8.0000 </r>
       <r>   -18.1448     0.0000     8.0000 </r>
       <r>   -18.0439     0.0000     8.0000 </r>
       <r>   -17.9430     0.0000     8.0000 </r>
       <r>   -17.8420     0.0000     8.0000 </r>
       <r>   -17.7411     0.0000     8.0000 </r>
       <r>   -17.6402     0.0000     8.0000 </r>
       <r>   -17.5393     0.0000     8.0000 </r>
       <r>   -17.4383     0.0000     8.0000 </r>
       <r>   -17.3374     0.0000     8.0000 </r>
       <r>   -17.2365     0.0000     8.0000 </r>
       <r>   -17.1356     0.0000     8.0000 </r>
       <r>   -17.0346     0.0000     8.0000 </r>
       <r>   -16.9337     0.0000     8.0000 </r>
       <r>   -16.8328     0.0000     8.0000 </r>
       <r>   -16.7319     0.0000     8.0000 </r>
       <r>   -16.6309     0.0000     8.0000 </r>
       <r>   -16.5300     0.0000     8.0000 </r>
       <r>   -16.4291     0.0000     8.0000 </r>
       <r>   -16.3282     0.0000     8.0000 </r>
       <r>   -16.2272     0.0000     8.0000 </r>
       <r>   -16.1263     0.0000     8.0000 </r>
       <r>   -16.0254     0.0000     8.0000 </r>
       <r>   -15.9245     0.0000     8.0000 </r>
       <r>   -15.8235     0.0000     8.0000 </r>
       <r>   -15.7226     0.0000     8.0000 </r>
       <r>   -15.6217     0.0000     8.0000 </r>
       <r>   -15.5208     0.0000     8.0000 </r>
       <r>   -15.4198     0.0000     8.0000 </r>
       <r>   -15.3189     0.0000     8.0000 </r>
       <r>   -15.2180     0.0000     8.0000 </r>
       <r>   -15.1171     0.0000     8.0000 </r>
       <r>   -15.0162     0.0000     8.0000 </r>
       <r>   -14.9152     0.0000     8.0000 </r>
       <r>   -14.8143     0.0000     8.0000 </r>
       <r>   -14.7134     0.0000     8.0000 </r>
       <r>   -14.6125     0.0000     8.0000 </r>
       <r>   -14.5115     0.0000     8.0000 </r>
       <r>   -14.4106     0.0000     8.0000 </r>
       <r>   -14.3097     0.0000     8.0000 </r>
       <r>   -14.2088     0.0000     8.0000 </r>
       <r>   -14.1078     0.0000     8.0000 </r>
       <r>   -14.0069     0.0000     8.0000 </r>
       <r>   -13.9060     0.0000     8.0000 </r>
       <r>   -13.8051     0.0000     8.0000 </r>
       <r>   -13.7041     0.0000     8.0000 </r>
       <r>   -13.6032     0.0000     8.0000 </r>
       <r>   -13.5023     0.0000     8.0000 </r>
       <r>   -13.4014     0.0000     8.0000 </r>
       <r>   -13.3004     0.0000     8.0000 </r>
       <r>   -13.1995     0.0000     8.0000 </r>
       <r>   -13.0986     0.0000     8.0000 </r>
       <r>   -12.9977     0.0000     8.0000 </r>
       <r>   -12.8967     0.0000     8.0000 </r>
       <r>   -12.7958     0.0000     8.0000 </r>
       <r>   -12.6949     0.0000     8.0000 </r>
       <r>   -12.5940     0.2721     8.0275 </r>
       <r>   -12.4930    49.9949    13.5775 </r>
       <r>   -12.3921    15.8969    15.9854 </r>
       <r>   -12.2912     0.0000    16.0000 </r>
       <r>   -12.1903     0.0000    16.0000 </r>
       <r>   -12.0894     0.0000    16.0000 </r>
       <r>   -11.9884     0.0000    16.0000 </r>
       <r>   -11.8875     0.0000    16.0000 </r>
       <r>   -11.7866     0.0000    16.0000 </r>
       <r>   -11.6857     0.0000    16.0000 </r>
       <r>   -11.5847     0.0000    16.0000 </r>
       <r>   -11.4838     0.0000    16.0000 </r>
       <r>   -11.3829     0.0000    16.0000 </r>
       <r>   -11.2820     0.0000    16.0000 </r>
       <r>   -11.1810     0.0000    16.0000 </r>
       <r>   -11.0801     0.0000    16.0000 </r>
       <r>   -10.9792     0.0000    16.0000 </r>
       <r>   -10.8783     0.0000    16.0000 </r>
       <r>   -10.7773     0.0000    16.0000 </r>
       <r>   -10.6764     0.0000    16.0000 </r>
       <r>   -10.5755     0.0000    16.0000 </r>
       <r>   -10.4746     0.0000    16.0000 </r>
       <r>   -10.3736     0.0000    16.0000 </r>
       <r>   -10.2727     0.0000    16.0000 </r>
       <r>   -10.1718     0.0000    16.0000 </r>
       <r>   -10.0709     0.0000    16.0000 </r>
       <r>    -9.9699     0.0000    16.0000 </r>
       <r>    -9.8690     0.0000    16.0000 </r>
       <r>    -9.7681     0.0000    16.0000 </r>
       <r>    -9.6672     0.0000    16.0000 </r>
       <r>    -9.5662     0.0000    16.0000 </r>
       <r>    -9.4653     0.0000    16.0000 </r>
       <r>    -9.3644     0.0000    16.0000 </r>
       <r>    -9.2635     0.0000    16.0000 </r>
       <r>    -9.1626     0.0000    16.0000 </r>
       <r>    -9.0616     0.0000    16.0000 </r>
       <r>    -8.9607     0.0000    16.0000 </r>
       <r>    -8.8598     0.0000    16.0000 </r>
       <r>    -8.7589     0.0000    16.0000 </r>
       <r>    -8.6579     0.0000    16.0000 </r>
       <r>    -8.5570     0.0000    16.0000 </r>
       <r>    -8.4561     0.0000    16.0000 </r>
       <r>    -8.3552     0.0000    16.0000 </r>
       <r>    -8.2542     0.0000    16.0000 </r>
       <r>    -8.1533     0.0000    16.0000 </r>
       <r>    -8.0524     0.0000    16.0000 </r>
       <r>    -7.9515     0.0000    16.0000 </r>
       <r>    -7.8505     0.0000    16.0000 </r>
       <r>    -7.7496     0.0000    16.0000 </r>
       <r>    -7.6487     0.0000    16.0000 </r>
       <r>    -7.5478     0.0000    16.0000 </r>
       <r>    -7.4468     0.0000    16.0000 </r>
       <r>    -7.3459     0.0000    16.0000 </r>
       <r>    -7.2450     0.0000    16.0000 </r>
       <r>    -7.1441     0.0000    16.0000 </r>
       <r>    -7.0431     0.0158    16.0016 </r>
       <r>    -6.9422    11.3696    17.1951 </r>
       <r>    -6.8413    29.7264    20.8573 </r>
       <r>    -6.7404    26.3450    24.2780 </r>
       <r>    -6.6394    15.3592    26.4867 </r>
       <r>    -6.5385    18.8736    28.8097 </r>
       <r>    -6.4376    13.2823    30.5786 </r>
       <r>    -6.3367    20.3670    33.0555 </r>
       <r>    -6.2358    26.3378    36.1820 </r>
       <r>    -6.1348    24.4487    39.2851 </r>
       <r>    -6.0339     3.0667    40.0000 </r>
       <r>    -5.9330     0.0000    40.0000 </r>
       <r>    -5.8321     0.0000    40.0000 </r>
       <r>    -5.7311     0.0000    40.0000 </r>
       <r>    -5.6302     0.0000    40.0000 </r>
       <r>    -5.5293     0.0000    40.0000 </r>
       <r>    -5.4284     0.0000    40.0000 </r>
       <r>    -5.3274     0.0000    40.0000 </r>
       <r>    -5.2265     0.0000    40.0000 </r>
       <r>    -5.1256     0.0000    40.0000 </r>
       <r>    -5.0247     0.0000    40.0000 </r>
       <r>    -4.9237     0.0000    40.0000 </r>
       <r>    -4.8228     0.0000    40.0000 </r>
       <r>    -4.7219     0.0000    40.0000 </r>
       <r>    -4.6210     0.0000    40.0000 </r>
       <r>    -4.5200     0.0000    40.0000 </r>
       <r>    -4.4191     0.0000    40.0000 </r>
       <r>    -4.3182     0.0000    40.0000 </r>
       <r>    -4.2173     0.0000    40.0000 </r>
       <r>    -4.1163     0.0000    40.0000 </r>
       <r>    -4.0154     0.0000    40.0000 </r>
       <r>    -3.9145     0.0000    40.0000 </r>
       <r>    -3.8136     0.0000    40.0000 </r>
       <r>    -3.7126     0.0000    40.0000 </r>
       <r>    -3.6117     0.0000    40.0000 </r>
       <r>    -3.5108     0.0000    40.0000 </r>
       <r>    -3.4099     0.0000    40.0000 </r>
       <r>    -3.3090     0.0000    40.0000 </r>
       <r>    -3.2080     0.0000    40.0000 </r>
       <r>    -3.1071     0.0000    40.0000 </r>
       <r>    -3.0062     0.0000    40.0000 </r>
       <r>    -2.9053     0.0000    40.0000 </r>
       <r>    -2.8043     0.0000    40.0000 </r>
       <r>    -2.7034     0.0000    40.0000 </r>
       <r>    -2.6025     0.0000    40.0000 </r>
       <r>    -2.5016     0.0000    40.0000 </r>
       <r>    -2.4006     0.0000    40.0000 </r>
       <r>    -2.2997     0.0000    40.0000 </r>
       <r>    -2.1988     0.0000    40.0000 </r>
       <r>    -2.0979     0.0000    40.0000 </r>
       <r>    -1.9969     0.0000    40.0000 </r>
       <r>    -1.8960     0.0000    40.0000 </r>
       <r>    -1.7951     0.0000    40.0000 </r>
       <r>    -1.6942     0.0000    40.0000 </r>
       <r>    -1.5932     0.0000    40.0000 </r>
       <r>    -1.4923     0.3911    40.0395 </r>
       <r>    -1.3914     3.6112    40.4041 </r>
       <r>    -1.2905     5.1866    41.0949 </r>
       <r>    -1.1895    12.6989    42.6309 </r>
       <r>    -1.0886    21.6006    45.1007 </r>
       <r>    -0.9877    26.8063    48.4912 </r>
       <r>    -0.8868    15.2817    50.5106 </r>
       <r>    -0.7858    16.8765    52.7509 </r>
       <r>    -0.6849    20.6831    55.4049 </r>
       <r>    -0.5840    22.5939    58.2485 </r>
       <r>    -0.4831    40.9092    63.2876 </r>
       <r>    -0.3822     4.3954    63.9992 </r>
       <r>    -0.2812     0.0000    64.0000 </r>
       <r>    -0.1803     0.0000    64.0000 </r>
       <r>    -0.0794     0.0000    64.0000 </r>
       <r>     0.0215     0.0000    64.0000 </r>
       <r>     0.1225     0.0000    64.0000 </r>
       <r>     0.2234     0.0000    64.0000 </r>
       <r>     0.3243     0.0000    64.0000 </r>
       <r>     0.4252     0.0000    64.0000 </r>
       <r>     0.5262     0.0000    64.0000 </r>
       <r>     0.6271     0.0000    64.0000 </r>
       <r>     0.7280     0.0000    64.0000 </r>
       <r>     0.8289     0.0000    64.0000 </r>
       <r>     0.9299     0.0000    64.0000 </r>
       <r>     1.0308     0.0000    64.0000 </r>
       <r>     1.1317     0.0000    64.0000 </r>
       <r>     1.2326     0.0000    64.0000 </r>
       <r>     1.3336     0.0000    64.0000 </r>
       <r>     1.4345     0.0000    64.0000 </r>
       <r>     1.5354     0.0000    64.0000 </r>
       <r>     1.6363     0.0000    64.0000 </r>
       <r>     1.7373     0.0000    64.0000 </r>
       <r>     1.8382     0.0000    64.0000 </r>
       <r>     1.9391     0.0000    64.0000 </r>
       <r>     2.0400     0.0000    64.0000 </r>
       <r>     2.1410     0.0000    64.0000 </r>
       <r>     2.2419     0.0000    64.0000 </r>
       <r>     2.3428     0.0000    64.0000 </r>
       <r>     2.4437     0.0000    64.0000 </r>
       <r>     2.5446     0.0000    64.0000 </r>
       <r>     2.6456     0.0000    64.0000 </r>
       <r>     2.7465     0.0000    64.0000 </r>
       <r>     2.8474     0.0000    64.0000 </r>
       <r>     2.9483     0.0000    64.0000 </r>
       <r>     3.0493     0.0000    64.0000 </r>
       <r>     3.1502     0.0000    64.0000 </r>
       <r>     3.2511     0.0000    64.0000 </r>
       <r>     3.3520     0.0000    64.0000 </r>
       <r>     3.4530     0.0000    64.0000 </r>
       <r>     3.5539     0.0000    64.0000 </r>
       <r>     3.6548     0.0000    64.0000 </r>
       <r>     3.7557     0.0000    64.0000 </r>
       <r>     3.8567     0.0000    64.0000 </r>
       <r>     3.9576     0.0000    64.0000 </r>
       <r>     4.0585     0.0000    64.0000 </r>
       <r>     4.1594     0.0000    64.0000 </r>
       <r>     4.2604     0.0000    64.0000 </r>
       <r>     4.3613     0.0000    64.0000 </r>
       <r>     4.4622     0.0000    64.0000 </r>
       <r>     4.5631     0.0000    64.0000 </r>
       <r>     4.6641     0.0000    64.0000 </r>
       <r>     4.7650     0.0000    64.0000 </r>
       <r>     4.8659     0.0786    64.0079 </r>
       <r>     4.9668     0.0000    64.0079 </r>
       <r>     5.0678     0.6290    64.0714 </r>
       <r>     5.1687     0.7734    64.1495 </r>
       <r>     5.2696     1.4920    64.3331 </r>
       <r>     5.3705     0.3291    64.4221 </r>
       <r>     5.4714     2.4375    64.6984 </r>
       <r>     5.5724     2.4049    64.9808 </r>
       <r>     5.6733     3.6033    65.4431 </r>
       <r>     5.7742     3.8120    65.8371 </r>
       <r>     5.8751     7.8420    66.7200 </r>
       <r>     5.9761     8.4137    67.9523 </r>
       <r>     6.0770     7.6843    68.9740 </r>
       <r>     6.1779     9.6626    70.0864 </r>
       <r>     6.2788     6.9518    70.9873 </r>
       <r>     6.3798     9.1184    72.0631 </r>
       <r>     6.4807     4.2385    72.7770 </r>
       <r>     6.5816     6.7207    73.7576 </r>
       <r>     6.6825    12.3336    75.3560 </r>
       <r>     6.7835     8.3691    76.5431 </r>
       <r>     6.8844     7.1392    77.5301 </r>
       <r>     6.9853     4.6095    78.1954 </r>
       <r>     7.0862     5.1498    78.8372 </r>
       <r>     7.1872     4.2600    79.3347 </r>
       <r>     7.2881     1.4117    79.6583 </r>
       <r>     7.3890     0.6470    79.7796 </r>
       <r>     7.4899     0.9616    79.8907 </r>
       <r>     7.5909     0.0000    79.9524 </r>
       <r>     7.6918     0.1573    79.9683 </r>
       <r>     7.7927     0.3146    80.0000 </r>
       <r>     7.8936     0.0000    80.0000 </r>
       <r>     7.9946     0.0000    80.0000 </r>
       <r>     8.0955     0.0000    80.0000 </r>
       <r>     8.1964     0.0000    80.0000 </r>
       <r>     8.2973     0.0000    80.0000 </r>
       <r>     8.3982     0.0000    80.0000 </r>
       <r>     8.4992     0.0000    80.0000 </r>
       <r>     8.6001     0.0000    80.0000 </r>
       <r>     8.7010     0.0000    80.0000 </r>
       <r>     8.8019     0.0000    80.0000 </r>
       <r>     8.9029     0.0000    80.0000 </r>
       <r>     9.0038     0.0000    80.0000 </r>
       <r>     9.1047     0.0000    80.0000 </r>
      </set>
     </set>
    </array>
   </total>
  </dos>
 </calculation>
 <structure name="finalpos" >
  <crystal>
   <varray name="basis" >
    <v>       4.14369834       4.14369834       4.14369834 </v>
    <v>       4.14369834      -4.14369834      -4.14369834 </v>
    <v>       0.00000000       4.14369834      -4.14369834 </v>
   </varray>
   <i name="volume">    284.59311253 </i>
   <varray name="rec_basis" >
    <v>       0.12066515       0.06033258       0.06033258 </v>
    <v>       0.12066515      -0.06033258      -0.06033258 </v>
    <v>      -0.00000000       0.12066515      -0.12066515 </v>
   </varray>
  </crystal>
  <varray name="positions" >
   <v>       0.00000000       0.00000000       0.00000000 </v>
   <v>       0.50000000       0.50000000       0.00000000 </v>
   <v>       0.25000000       0.75000000       0.50000000 </v>
   <v>       0.75000000       0.25000000       0.50000000 </v>
   <v>       0.50107926       0.00000000       0.00107926 </v>
   <v>       0.00000000       0.50000000       0.00000000 </v>
   <v>       0.75000000       0.75000000       0.50000000 </v>
   <v>       0.25000000       0.25000000       0.50000000 </v>
  </varray>
 </structure>
</modeling>
