phonopy:
  version: "2.33.3"
  calculator: vasp
  frequency_unit_conversion_factor: 15.633302
  symmetry_tolerance: 1.00000e-05
  configuration:
    create_displacements: ".true."
    dim: "-2 1 0 -2 -1 0 2 0 1"

physical_unit:
  atomic_mass: "AMU"
  length: "angstrom"

space_group:
  type: "Fd-3m"
  number: 227
  Hall_symbol: "F 4d 2 3 -1d"

supercell_matrix:
- [  -2,   1,   0 ]
- [  -2,  -1,   0 ]
- [   2,   0,   1 ]

primitive_cell:
  lattice:
  - [     0.000000000000000,     2.721851186499999,     2.721851186499999 ] # a
  - [     2.721851186499999,     0.000000000000000,     2.721851186499999 ] # b
  - [     2.721851186499999,     2.721851186499999,     0.000000000000000 ] # c
  points:
  - symbol: Si # 1
    coordinates: [  0.000000000000000,  0.000000000000000,  0.000000000000000 ]
    mass: 28.085500
  - symbol: Si # 2
    coordinates: [  0.250000000000000,  0.250000000000000,  0.250000000000000 ]
    mass: 28.085500
  reciprocal_lattice: # without 2pi
  - [    -0.183698507280607,     0.183698507280607,     0.183698507280607 ] # a*
  - [     0.183698507280607,    -0.183698507280607,     0.183698507280607 ] # b*
  - [     0.183698507280607,     0.183698507280607,    -0.183698507280607 ] # c*

unit_cell:
  lattice:
  - [     0.000000000000000,     2.721851186500000,     2.721851186500000 ] # a
  - [     2.721851186500000,     0.000000000000000,     2.721851186500000 ] # b
  - [     2.721851186500000,     2.721851186500000,     0.000000000000000 ] # c
  points:
  - symbol: Si # 1
    coordinates: [  0.000000000000000,  0.000000000000000,  0.000000000000000 ]
    mass: 28.085500
    reduced_to: 1
  - symbol: Si # 2
    coordinates: [  0.250000000000000,  0.250000000000000,  0.250000000000000 ]
    mass: 28.085500
    reduced_to: 2

supercell:
  lattice:
  - [     0.000000000000000,     0.000000000000000,   -10.887404745999998 ] # a
  - [    -2.721851186499999,     2.721851186499999,    -0.000000000000000 ] # b
  - [     2.721851186499999,     2.721851186499999,     0.000000000000000 ] # c
  points:
  - symbol: Si # 1
    coordinates: [  0.000000000000000,  0.000000000000000,  0.000000000000000 ]
    mass: 28.085500
    reduced_to: 1
  - symbol: Si # 2
    coordinates: [  0.750000000000000,  0.500000000000000,  0.500000000000000 ]
    mass: 28.085500
    reduced_to: 1
  - symbol: Si # 3
    coordinates: [  0.500000000000000,  0.000000000000000,  0.000000000000000 ]
    mass: 28.085500
    reduced_to: 1
  - symbol: Si # 4
    coordinates: [  0.250000000000000,  0.500000000000000,  0.500000000000000 ]
    mass: 28.085500
    reduced_to: 1
  - symbol: Si # 5
    coordinates: [  0.875000000000000,  0.000000000000000,  0.500000000000000 ]
    mass: 28.085500
    reduced_to: 5
  - symbol: Si # 6
    coordinates: [  0.625000000000000,  0.500000000000000,  0.000000000000000 ]
    mass: 28.085500
    reduced_to: 5
  - symbol: Si # 7
    coordinates: [  0.375000000000000,  0.000000000000000,  0.500000000000000 ]
    mass: 28.085500
    reduced_to: 5
  - symbol: Si # 8
    coordinates: [  0.125000000000000,  0.500000000000000,  0.000000000000000 ]
    mass: 28.085500
    reduced_to: 5

displacements:
- atom:    1
  displacement:
    [  -0.0023570226039552,  0.0023570226039552, -0.0094280904158206 ]
- atom:    1
  displacement:
    [   0.0023570226039552, -0.0023570226039552,  0.0094280904158206 ]
