phonopy:
  version: "2.34.0"
  frequency_unit_conversion_factor: 15.633302
  symmetry_tolerance: 1.00000e-05
  configuration:
    force_sets: "READ"
    force_constants: "WRITE"
    fc_format: "HDF5"
    fc_symmetry: ".FALSE."
    include_fc: ".TRUE."
    primitive_axes: "1 0 0 0 1 0 0 0 1"
    dim: "1 1 0 1 -1 1 1 -1 -1"

physical_unit:
  atomic_mass: "AMU"
  length: "angstrom"
  force: "eV/angstrom"
  force_constants: "eV/angstrom^2"

space_group:
  type: "Pm-3m"
  number: 221
  Hall_symbol: "-P 4 2 3"

primitive_matrix:
- [  1.000000000000000,  0.000000000000000,  0.000000000000000 ]
- [  0.000000000000000,  1.000000000000000,  0.000000000000000 ]
- [  0.000000000000000,  0.000000000000000,  1.000000000000000 ]

supercell_matrix:
- [   1,   1,   0 ]
- [   1,  -1,   1 ]
- [   1,  -1,  -1 ]

primitive_cell:
  lattice:
  - [     4.143698340000000,     0.000000000000000,     0.000000000000000 ] # a
  - [     0.000000000000001,     4.143698340000000,     0.000000000000000 ] # b
  - [     0.000000000000000,     0.000000000000000,     4.143698340000000 ] # c
  points:
  - symbol: Cs # 1
    coordinates: [  0.000000000000000,  0.000000000000000,  0.000000000000000 ]
    mass: 132.905452
  - symbol: Cl # 2
    coordinates: [  0.500000000000000,  0.500000000000000,  0.500000000000000 ]
    mass: 35.453000
  reciprocal_lattice: # without 2pi
  - [     0.241330308808146,    -0.000000000000000,    -0.000000000000000 ] # a*
  - [     0.000000000000000,     0.241330308808146,     0.000000000000000 ] # b*
  - [     0.000000000000000,    -0.000000000000000,     0.241330308808146 ] # c*

unit_cell:
  lattice:
  - [     4.143698340000000,     0.000000000000000,     0.000000000000000 ] # a
  - [     0.000000000000001,     4.143698340000000,     0.000000000000000 ] # b
  - [     0.000000000000000,     0.000000000000000,     4.143698340000000 ] # c
  points:
  - symbol: Cs # 1
    coordinates: [  0.000000000000000,  0.000000000000000,  0.000000000000000 ]
    mass: 132.905452
    reduced_to: 1
  - symbol: Cl # 2
    coordinates: [  0.500000000000000,  0.500000000000000,  0.500000000000000 ]
    mass: 35.453000
    reduced_to: 2

supercell:
  lattice:
  - [     4.143698340000001,     4.143698340000000,     4.143698340000000 ] # a
  - [     4.143698339999999,    -4.143698340000000,    -4.143698340000000 ] # b
  - [     0.000000000000001,     4.143698340000000,    -4.143698339999999 ] # c
  points:
  - symbol: Cs # 1
    coordinates: [  0.000000000000000,  0.000000000000000,  0.000000000000000 ]
    mass: 132.905452
    reduced_to: 1
  - symbol: Cs # 2
    coordinates: [  0.500000000000000,  0.500000000000000,  0.000000000000000 ]
    mass: 132.905452
    reduced_to: 1
  - symbol: Cs # 3
    coordinates: [  0.250000000000000,  0.750000000000000,  0.500000000000000 ]
    mass: 132.905452
    reduced_to: 1
  - symbol: Cs # 4
    coordinates: [  0.750000000000000,  0.250000000000000,  0.500000000000000 ]
    mass: 132.905452
    reduced_to: 1
  - symbol: Cl # 5
    coordinates: [  0.500000000000000,  0.000000000000000,  0.000000000000000 ]
    mass: 35.453000
    reduced_to: 5
  - symbol: Cl # 6
    coordinates: [  0.000000000000000,  0.500000000000000,  0.000000000000000 ]
    mass: 35.453000
    reduced_to: 5
  - symbol: Cl # 7
    coordinates: [  0.750000000000000,  0.750000000000000,  0.500000000000000 ]
    mass: 35.453000
    reduced_to: 5
  - symbol: Cl # 8
    coordinates: [  0.250000000000000,  0.250000000000000,  0.500000000000000 ]
    mass: 35.453000
    reduced_to: 5

force_constants:
  format: "compact"
  shape: [ 2, 8 ]
  elements:
  - # (1, 1)
    - [     1.438679428519426,     0.000000000000001,    -0.000000000000000 ]
    - [    -0.000000000000000,     1.349522926120555,     0.023184670824707 ]
    - [     0.000000000000000,     0.023184670824706,     1.349522926120555 ]
  - # (1, 2)
    - [    -0.814299931094185,     0.000000000000000,    -0.000000000000000 ]
    - [     0.000000000000000,     0.071626847489262,    -0.023250634830043 ]
    - [    -0.000000000000000,    -0.023250634830043,     0.071626847489262 ]
  - # (1, 3)
    - [     0.081785304311043,    -0.000000000000000,    -0.000000000000000 ]
    - [    -0.000000000000000,    -0.314180408229590,     0.000044162342556 ]
    - [    -0.000000000000000,     0.000044162342556,    -0.314180408229590 ]
  - # (1, 4)
    - [     0.081785304311043,    -0.000000000000000,    -0.000000000000000 ]
    - [    -0.000000000000000,    -0.314180408229590,     0.000044162342556 ]
    - [    -0.000000000000000,     0.000044162342556,    -0.314180408229590 ]
  - # (1, 5)
    - [    -0.197173120153964,    -0.090985046987472,    -0.090985046987472 ]
    - [    -0.089039667847047,    -0.198231339324316,    -0.132563053978097 ]
    - [    -0.089039667847047,    -0.132563053978097,    -0.198231339324316 ]
  - # (1, 6)
    - [    -0.197173120153964,     0.090985046987472,     0.090985046987472 ]
    - [     0.089039667847047,    -0.198231339324316,    -0.132563053978097 ]
    - [     0.089039667847047,    -0.132563053978097,    -0.198231339324316 ]
  - # (1, 7)
    - [    -0.196800814835711,    -0.000000000000000,     0.000000000000000 ]
    - [     0.000000000000000,    -0.198163698267997,     0.132552432655204 ]
    - [     0.000000000000000,     0.132552432655204,    -0.198163698267997 ]
  - # (1, 8)
    - [    -0.196800814835711,    -0.000000000000000,     0.000000000000000 ]
    - [     0.000000000000000,    -0.198163698267997,     0.132552432655204 ]
    - [     0.000000000000000,     0.132552432655204,    -0.198163698267997 ]
  - # (2, 1)
    - [    -0.197965806251988,    -0.089077681002664,    -0.089077681002664 ]
    - [    -0.090963245324691,    -0.196203225668724,    -0.133089647986798 ]
    - [    -0.090963245324691,    -0.133089647986798,    -0.196203225668724 ]
  - # (2, 2)
    - [    -0.197965806251988,     0.089077681002664,     0.089077681002664 ]
    - [     0.090963245324691,    -0.196203225668724,    -0.133089647986798 ]
    - [     0.090963245324691,    -0.133089647986798,    -0.196203225668724 ]
  - # (2, 3)
    - [    -0.198030652223336,    -0.000000000000000,     0.000000000000000 ]
    - [     0.000000000000000,    -0.196167448581084,     0.132090684617850 ]
    - [     0.000000000000000,     0.132090684617850,    -0.196167448581084 ]
  - # (2, 4)
    - [    -0.198030652223336,    -0.000000000000000,     0.000000000000000 ]
    - [     0.000000000000000,    -0.196167448581084,     0.132090684617850 ]
    - [     0.000000000000000,     0.132090684617850,    -0.196167448581084 ]
  - # (2, 5)
    - [     1.330069134716307,     0.000000000000001,     0.000000000000000 ]
    - [    -0.000000000000000,     1.232037678514740,    -0.022018561374440 ]
    - [     0.000000000000000,    -0.022018561374440,     1.232037678514739 ]
  - # (2, 6)
    - [    -0.575257556095526,    -0.000000000000000,     0.000000000000000 ]
    - [     0.000000000000000,    -0.042224789653117,     0.024887436589573 ]
    - [    -0.000000000000000,     0.024887436589573,    -0.042224789653117 ]
  - # (2, 7)
    - [     0.018590669164933,    -0.000000000000000,     0.000000000000000 ]
    - [    -0.000000000000000,    -0.202535211164009,    -0.000435474238618 ]
    - [    -0.000000000000000,    -0.000435474238618,    -0.202535211164009 ]
  - # (2, 8)
    - [     0.018590669164933,    -0.000000000000000,     0.000000000000000 ]
    - [    -0.000000000000000,    -0.202535211164009,    -0.000435474238618 ]
    - [    -0.000000000000000,    -0.000435474238618,    -0.202535211164009 ]