<?xml version="1.0" encoding="ISO-8859-1"?>
<modeling>
 <generator>
  <i name="program" type="string">vasp </i>
  <i name="version" type="string">6.4.3  </i>
  <i name="subversion" type="string">19Mar24 (build Jun 20 2024 15:56:09) complex                          parallel </i>
  <i name="platform" type="string">LinuxNV_CrayMPICH </i>
  <i name="date" type="string">2025 01 13 </i>
  <i name="time" type="string">18:22:20 </i>
 </generator>
 <incar>
  <i type="string" name="PREC">Accurate</i>
  <i type="int" name="IBRION">    -1</i>
  <i name="EDIFF">      0.00000001</i>
  <i type="int" name="NSW">     0</i>
  <i name="ENCUT">    500.00000000</i>
  <i type="logical" name="LREAL"> F  </i>
  <i type="int" name="ISMEAR">     0</i>
  <i name="SIGMA">      0.01000000</i>
  <i type="logical" name="LWAVE"> F  </i>
  <i type="logical" name="LCHARG"> F  </i>
 </incar>
 <primitive_cell>
  <structure name="primitive_cell" >
   <crystal>
    <varray name="basis" >
     <v>      -0.00000000       2.72185119       2.72185119 </v>
     <v>       2.72185119      -0.00000000       2.72185119 </v>
     <v>       2.72185119       2.72185119       0.00000000 </v>
    </varray>
    <i name="volume">     40.32952685 </i>
    <varray name="rec_basis" >
     <v>      -0.18369851       0.18369851       0.18369851 </v>
     <v>       0.18369851      -0.18369851       0.18369851 </v>
     <v>       0.18369851       0.18369851      -0.18369851 </v>
    </varray>
   </crystal>
   <varray name="positions" >
    <v>       0.00000000       0.00000000       0.00000000 </v>
    <v>       0.25000000       0.25000000       0.25000000 </v>
   </varray>
  </structure>
  <varray name="primitive_index" >
   <v type="int" >        1 </v>
   <v type="int" >        6 </v>
  </varray>
 </primitive_cell>
 <kpoints>
  <generation param="Gamma">
   <v type="int" name="divisions">       9        9        8 </v>
   <v name="usershift">      0.00000000       0.00000000       0.00000000 </v>
   <v name="genvec1">      0.11111111       0.00000000      -0.00000000 </v>
   <v name="genvec2">      0.00000000       0.11111111       0.00000000 </v>
   <v name="genvec3">      0.00000000       0.00000000       0.12500000 </v>
   <v name="shift">      0.00000000       0.00000000       0.00000000 </v>
  </generation>
  <varray name="kpointlist" >
   <v>       0.00000000       0.00000000       0.00000000 </v>
   <v>       0.11111111       0.00000000       0.00000000 </v>
   <v>       0.22222222       0.00000000       0.00000000 </v>
   <v>       0.33333333       0.00000000       0.00000000 </v>
   <v>       0.44444444       0.00000000       0.00000000 </v>
   <v>       0.11111111       0.11111111       0.00000000 </v>
   <v>       0.22222222       0.11111111       0.00000000 </v>
   <v>       0.33333333       0.11111111       0.00000000 </v>
   <v>       0.44444444       0.11111111       0.00000000 </v>
   <v>      -0.44444444       0.11111111       0.00000000 </v>
   <v>      -0.33333333       0.11111111       0.00000000 </v>
   <v>      -0.22222222       0.11111111       0.00000000 </v>
   <v>      -0.11111111       0.11111111       0.00000000 </v>
   <v>       0.22222222       0.22222222       0.00000000 </v>
   <v>       0.33333333       0.22222222       0.00000000 </v>
   <v>       0.44444444       0.22222222       0.00000000 </v>
   <v>      -0.44444444       0.22222222       0.00000000 </v>
   <v>      -0.33333333       0.22222222       0.00000000 </v>
   <v>      -0.22222222       0.22222222       0.00000000 </v>
   <v>       0.33333333       0.33333333       0.00000000 </v>
   <v>       0.44444444       0.33333333       0.00000000 </v>
   <v>      -0.44444444       0.33333333       0.00000000 </v>
   <v>      -0.33333333       0.33333333       0.00000000 </v>
   <v>       0.44444444       0.44444444       0.00000000 </v>
   <v>      -0.44444444       0.44444444       0.00000000 </v>
   <v>       0.00000000       0.00000000       0.12500000 </v>
   <v>       0.11111111       0.00000000       0.12500000 </v>
   <v>       0.22222222       0.00000000       0.12500000 </v>
   <v>       0.33333333       0.00000000       0.12500000 </v>
   <v>       0.44444444       0.00000000       0.12500000 </v>
   <v>      -0.44444444       0.00000000       0.12500000 </v>
   <v>      -0.33333333       0.00000000       0.12500000 </v>
   <v>      -0.22222222       0.00000000       0.12500000 </v>
   <v>      -0.11111111       0.00000000       0.12500000 </v>
   <v>       0.11111111       0.11111111       0.12500000 </v>
   <v>       0.22222222       0.11111111       0.12500000 </v>
   <v>       0.33333333       0.11111111       0.12500000 </v>
   <v>       0.44444444       0.11111111       0.12500000 </v>
   <v>      -0.44444444       0.11111111       0.12500000 </v>
   <v>      -0.33333333       0.11111111       0.12500000 </v>
   <v>      -0.22222222       0.11111111       0.12500000 </v>
   <v>      -0.11111111       0.11111111       0.12500000 </v>
   <v>       0.22222222       0.22222222       0.12500000 </v>
   <v>       0.33333333       0.22222222       0.12500000 </v>
   <v>       0.44444444       0.22222222       0.12500000 </v>
   <v>      -0.44444444       0.22222222       0.12500000 </v>
   <v>      -0.33333333       0.22222222       0.12500000 </v>
   <v>      -0.22222222       0.22222222       0.12500000 </v>
   <v>      -0.11111111       0.22222222       0.12500000 </v>
   <v>       0.33333333       0.33333333       0.12500000 </v>
   <v>       0.44444444       0.33333333       0.12500000 </v>
   <v>      -0.44444444       0.33333333       0.12500000 </v>
   <v>      -0.33333333       0.33333333       0.12500000 </v>
   <v>      -0.22222222       0.33333333       0.12500000 </v>
   <v>      -0.11111111       0.33333333       0.12500000 </v>
   <v>       0.44444444       0.44444444       0.12500000 </v>
   <v>      -0.44444444       0.44444444       0.12500000 </v>
   <v>      -0.33333333       0.44444444       0.12500000 </v>
   <v>      -0.22222222       0.44444444       0.12500000 </v>
   <v>      -0.11111111       0.44444444       0.12500000 </v>
   <v>      -0.44444444      -0.44444444       0.12500000 </v>
   <v>      -0.33333333      -0.44444444       0.12500000 </v>
   <v>      -0.22222222      -0.44444444       0.12500000 </v>
   <v>      -0.11111111      -0.44444444       0.12500000 </v>
   <v>      -0.33333333      -0.33333333       0.12500000 </v>
   <v>      -0.22222222      -0.33333333       0.12500000 </v>
   <v>      -0.11111111      -0.33333333       0.12500000 </v>
   <v>      -0.22222222      -0.22222222       0.12500000 </v>
   <v>      -0.11111111      -0.22222222       0.12500000 </v>
   <v>      -0.11111111      -0.11111111       0.12500000 </v>
   <v>       0.00000000       0.00000000       0.25000000 </v>
   <v>       0.11111111       0.00000000       0.25000000 </v>
   <v>       0.22222222       0.00000000       0.25000000 </v>
   <v>       0.33333333       0.00000000       0.25000000 </v>
   <v>       0.44444444       0.00000000       0.25000000 </v>
   <v>      -0.44444444       0.00000000       0.25000000 </v>
   <v>      -0.33333333       0.00000000       0.25000000 </v>
   <v>      -0.22222222       0.00000000       0.25000000 </v>
   <v>      -0.11111111       0.00000000       0.25000000 </v>
   <v>       0.11111111       0.11111111       0.25000000 </v>
   <v>       0.22222222       0.11111111       0.25000000 </v>
   <v>       0.33333333       0.11111111       0.25000000 </v>
   <v>       0.44444444       0.11111111       0.25000000 </v>
   <v>      -0.44444444       0.11111111       0.25000000 </v>
   <v>      -0.33333333       0.11111111       0.25000000 </v>
   <v>      -0.22222222       0.11111111       0.25000000 </v>
   <v>      -0.11111111       0.11111111       0.25000000 </v>
   <v>       0.22222222       0.22222222       0.25000000 </v>
   <v>       0.33333333       0.22222222       0.25000000 </v>
   <v>       0.44444444       0.22222222       0.25000000 </v>
   <v>      -0.44444444       0.22222222       0.25000000 </v>
   <v>      -0.33333333       0.22222222       0.25000000 </v>
   <v>      -0.22222222       0.22222222       0.25000000 </v>
   <v>      -0.11111111       0.22222222       0.25000000 </v>
   <v>       0.33333333       0.33333333       0.25000000 </v>
   <v>       0.44444444       0.33333333       0.25000000 </v>
   <v>      -0.44444444       0.33333333       0.25000000 </v>
   <v>      -0.33333333       0.33333333       0.25000000 </v>
   <v>      -0.22222222       0.33333333       0.25000000 </v>
   <v>      -0.11111111       0.33333333       0.25000000 </v>
   <v>       0.44444444       0.44444444       0.25000000 </v>
   <v>      -0.44444444       0.44444444       0.25000000 </v>
   <v>      -0.33333333       0.44444444       0.25000000 </v>
   <v>      -0.22222222       0.44444444       0.25000000 </v>
   <v>      -0.11111111       0.44444444       0.25000000 </v>
   <v>      -0.44444444      -0.44444444       0.25000000 </v>
   <v>      -0.33333333      -0.44444444       0.25000000 </v>
   <v>      -0.22222222      -0.44444444       0.25000000 </v>
   <v>      -0.11111111      -0.44444444       0.25000000 </v>
   <v>      -0.33333333      -0.33333333       0.25000000 </v>
   <v>      -0.22222222      -0.33333333       0.25000000 </v>
   <v>      -0.11111111      -0.33333333       0.25000000 </v>
   <v>      -0.22222222      -0.22222222       0.25000000 </v>
   <v>      -0.11111111      -0.22222222       0.25000000 </v>
   <v>      -0.11111111      -0.11111111       0.25000000 </v>
   <v>       0.00000000       0.00000000       0.37500000 </v>
   <v>       0.11111111       0.00000000       0.37500000 </v>
   <v>       0.22222222       0.00000000       0.37500000 </v>
   <v>       0.33333333       0.00000000       0.37500000 </v>
   <v>       0.44444444       0.00000000       0.37500000 </v>
   <v>      -0.44444444       0.00000000       0.37500000 </v>
   <v>      -0.33333333       0.00000000       0.37500000 </v>
   <v>      -0.22222222       0.00000000       0.37500000 </v>
   <v>      -0.11111111       0.00000000       0.37500000 </v>
   <v>       0.11111111       0.11111111       0.37500000 </v>
   <v>       0.22222222       0.11111111       0.37500000 </v>
   <v>       0.33333333       0.11111111       0.37500000 </v>
   <v>       0.44444444       0.11111111       0.37500000 </v>
   <v>      -0.44444444       0.11111111       0.37500000 </v>
   <v>      -0.33333333       0.11111111       0.37500000 </v>
   <v>      -0.22222222       0.11111111       0.37500000 </v>
   <v>      -0.11111111       0.11111111       0.37500000 </v>
   <v>       0.22222222       0.22222222       0.37500000 </v>
   <v>       0.33333333       0.22222222       0.37500000 </v>
   <v>       0.44444444       0.22222222       0.37500000 </v>
   <v>      -0.44444444       0.22222222       0.37500000 </v>
   <v>      -0.33333333       0.22222222       0.37500000 </v>
   <v>      -0.22222222       0.22222222       0.37500000 </v>
   <v>      -0.11111111       0.22222222       0.37500000 </v>
   <v>       0.33333333       0.33333333       0.37500000 </v>
   <v>       0.44444444       0.33333333       0.37500000 </v>
   <v>      -0.44444444       0.33333333       0.37500000 </v>
   <v>      -0.33333333       0.33333333       0.37500000 </v>
   <v>      -0.22222222       0.33333333       0.37500000 </v>
   <v>      -0.11111111       0.33333333       0.37500000 </v>
   <v>       0.44444444       0.44444444       0.37500000 </v>
   <v>      -0.44444444       0.44444444       0.37500000 </v>
   <v>      -0.33333333       0.44444444       0.37500000 </v>
   <v>      -0.22222222       0.44444444       0.37500000 </v>
   <v>      -0.11111111       0.44444444       0.37500000 </v>
   <v>      -0.44444444      -0.44444444       0.37500000 </v>
   <v>      -0.33333333      -0.44444444       0.37500000 </v>
   <v>      -0.22222222      -0.44444444       0.37500000 </v>
   <v>      -0.11111111      -0.44444444       0.37500000 </v>
   <v>      -0.33333333      -0.33333333       0.37500000 </v>
   <v>      -0.22222222      -0.33333333       0.37500000 </v>
   <v>      -0.11111111      -0.33333333       0.37500000 </v>
   <v>      -0.22222222      -0.22222222       0.37500000 </v>
   <v>      -0.11111111      -0.22222222       0.37500000 </v>
   <v>      -0.11111111      -0.11111111       0.37500000 </v>
   <v>       0.00000000       0.00000000       0.50000000 </v>
   <v>       0.11111111       0.00000000       0.50000000 </v>
   <v>       0.22222222       0.00000000       0.50000000 </v>
   <v>       0.33333333       0.00000000       0.50000000 </v>
   <v>       0.44444444       0.00000000       0.50000000 </v>
   <v>       0.11111111       0.11111111       0.50000000 </v>
   <v>       0.22222222       0.11111111       0.50000000 </v>
   <v>       0.33333333       0.11111111       0.50000000 </v>
   <v>       0.44444444       0.11111111       0.50000000 </v>
   <v>      -0.44444444       0.11111111       0.50000000 </v>
   <v>      -0.33333333       0.11111111       0.50000000 </v>
   <v>      -0.22222222       0.11111111       0.50000000 </v>
   <v>      -0.11111111       0.11111111       0.50000000 </v>
   <v>       0.22222222       0.22222222       0.50000000 </v>
   <v>       0.33333333       0.22222222       0.50000000 </v>
   <v>       0.44444444       0.22222222       0.50000000 </v>
   <v>      -0.44444444       0.22222222       0.50000000 </v>
   <v>      -0.33333333       0.22222222       0.50000000 </v>
   <v>      -0.22222222       0.22222222       0.50000000 </v>
   <v>       0.33333333       0.33333333       0.50000000 </v>
   <v>       0.44444444       0.33333333       0.50000000 </v>
   <v>      -0.44444444       0.33333333       0.50000000 </v>
   <v>      -0.33333333       0.33333333       0.50000000 </v>
   <v>       0.44444444       0.44444444       0.50000000 </v>
   <v>      -0.44444444       0.44444444       0.50000000 </v>
  </varray>
  <varray name="weights" >
   <v>       0.00154321 </v>
   <v>       0.00617284 </v>
   <v>       0.00617284 </v>
   <v>       0.00617284 </v>
   <v>       0.00617284 </v>
   <v>       0.00308642 </v>
   <v>       0.00617284 </v>
   <v>       0.00617284 </v>
   <v>       0.00617284 </v>
   <v>       0.00617284 </v>
   <v>       0.00617284 </v>
   <v>       0.00617284 </v>
   <v>       0.00308642 </v>
   <v>       0.00308642 </v>
   <v>       0.00617284 </v>
   <v>       0.00617284 </v>
   <v>       0.00617284 </v>
   <v>       0.00617284 </v>
   <v>       0.00308642 </v>
   <v>       0.00308642 </v>
   <v>       0.00617284 </v>
   <v>       0.00617284 </v>
   <v>       0.00308642 </v>
   <v>       0.00308642 </v>
   <v>       0.00308642 </v>
   <v>       0.00308642 </v>
   <v>       0.00617284 </v>
   <v>       0.00617284 </v>
   <v>       0.00617284 </v>
   <v>       0.00617284 </v>
   <v>       0.00617284 </v>
   <v>       0.00617284 </v>
   <v>       0.00617284 </v>
   <v>       0.00617284 </v>
   <v>       0.00308642 </v>
   <v>       0.00617284 </v>
   <v>       0.00617284 </v>
   <v>       0.00617284 </v>
   <v>       0.00617284 </v>
   <v>       0.00617284 </v>
   <v>       0.00617284 </v>
   <v>       0.00617284 </v>
   <v>       0.00308642 </v>
   <v>       0.00617284 </v>
   <v>       0.00617284 </v>
   <v>       0.00617284 </v>
   <v>       0.00617284 </v>
   <v>       0.00617284 </v>
   <v>       0.00617284 </v>
   <v>       0.00308642 </v>
   <v>       0.00617284 </v>
   <v>       0.00617284 </v>
   <v>       0.00617284 </v>
   <v>       0.00617284 </v>
   <v>       0.00617284 </v>
   <v>       0.00308642 </v>
   <v>       0.00617284 </v>
   <v>       0.00617284 </v>
   <v>       0.00617284 </v>
   <v>       0.00617284 </v>
   <v>       0.00308642 </v>
   <v>       0.00617284 </v>
   <v>       0.00617284 </v>
   <v>       0.00617284 </v>
   <v>       0.00308642 </v>
   <v>       0.00617284 </v>
   <v>       0.00617284 </v>
   <v>       0.00308642 </v>
   <v>       0.00617284 </v>
   <v>       0.00308642 </v>
   <v>       0.00308642 </v>
   <v>       0.00617284 </v>
   <v>       0.00617284 </v>
   <v>       0.00617284 </v>
   <v>       0.00617284 </v>
   <v>       0.00617284 </v>
   <v>       0.00617284 </v>
   <v>       0.00617284 </v>
   <v>       0.00617284 </v>
   <v>       0.00308642 </v>
   <v>       0.00617284 </v>
   <v>       0.00617284 </v>
   <v>       0.00617284 </v>
   <v>       0.00617284 </v>
   <v>       0.00617284 </v>
   <v>       0.00617284 </v>
   <v>       0.00617284 </v>
   <v>       0.00308642 </v>
   <v>       0.00617284 </v>
   <v>       0.00617284 </v>
   <v>       0.00617284 </v>
   <v>       0.00617284 </v>
   <v>       0.00617284 </v>
   <v>       0.00617284 </v>
   <v>       0.00308642 </v>
   <v>       0.00617284 </v>
   <v>       0.00617284 </v>
   <v>       0.00617284 </v>
   <v>       0.00617284 </v>
   <v>       0.00617284 </v>
   <v>       0.00308642 </v>
   <v>       0.00617284 </v>
   <v>       0.00617284 </v>
   <v>       0.00617284 </v>
   <v>       0.00617284 </v>
   <v>       0.00308642 </v>
   <v>       0.00617284 </v>
   <v>       0.00617284 </v>
   <v>       0.00617284 </v>
   <v>       0.00308642 </v>
   <v>       0.00617284 </v>
   <v>       0.00617284 </v>
   <v>       0.00308642 </v>
   <v>       0.00617284 </v>
   <v>       0.00308642 </v>
   <v>       0.00308642 </v>
   <v>       0.00617284 </v>
   <v>       0.00617284 </v>
   <v>       0.00617284 </v>
   <v>       0.00617284 </v>
   <v>       0.00617284 </v>
   <v>       0.00617284 </v>
   <v>       0.00617284 </v>
   <v>       0.00617284 </v>
   <v>       0.00308642 </v>
   <v>       0.00617284 </v>
   <v>       0.00617284 </v>
   <v>       0.00617284 </v>
   <v>       0.00617284 </v>
   <v>       0.00617284 </v>
   <v>       0.00617284 </v>
   <v>       0.00617284 </v>
   <v>       0.00308642 </v>
   <v>       0.00617284 </v>
   <v>       0.00617284 </v>
   <v>       0.00617284 </v>
   <v>       0.00617284 </v>
   <v>       0.00617284 </v>
   <v>       0.00617284 </v>
   <v>       0.00308642 </v>
   <v>       0.00617284 </v>
   <v>       0.00617284 </v>
   <v>       0.00617284 </v>
   <v>       0.00617284 </v>
   <v>       0.00617284 </v>
   <v>       0.00308642 </v>
   <v>       0.00617284 </v>
   <v>       0.00617284 </v>
   <v>       0.00617284 </v>
   <v>       0.00617284 </v>
   <v>       0.00308642 </v>
   <v>       0.00617284 </v>
   <v>       0.00617284 </v>
   <v>       0.00617284 </v>
   <v>       0.00308642 </v>
   <v>       0.00617284 </v>
   <v>       0.00617284 </v>
   <v>       0.00308642 </v>
   <v>       0.00617284 </v>
   <v>       0.00308642 </v>
   <v>       0.00154321 </v>
   <v>       0.00617284 </v>
   <v>       0.00617284 </v>
   <v>       0.00617284 </v>
   <v>       0.00617284 </v>
   <v>       0.00308642 </v>
   <v>       0.00617284 </v>
   <v>       0.00617284 </v>
   <v>       0.00617284 </v>
   <v>       0.00617284 </v>
   <v>       0.00617284 </v>
   <v>       0.00617284 </v>
   <v>       0.00308642 </v>
   <v>       0.00308642 </v>
   <v>       0.00617284 </v>
   <v>       0.00617284 </v>
   <v>       0.00617284 </v>
   <v>       0.00617284 </v>
   <v>       0.00308642 </v>
   <v>       0.00308642 </v>
   <v>       0.00617284 </v>
   <v>       0.00617284 </v>
   <v>       0.00308642 </v>
   <v>       0.00308642 </v>
   <v>       0.00308642 </v>
  </varray>
 </kpoints>
 <parameters>
  <separator name="general" >
   <i type="string" name="SYSTEM">unknown system</i>
   <i type="logical" name="LCOMPAT"> F  </i>
  </separator>
  <separator name="electronic" >
   <i type="string" name="PREC">accura</i>
   <i name="ENMAX">    500.00000000</i>
   <i name="ENAUG">    322.06900000</i>
   <i name="EDIFF">      0.00000001</i>
   <i type="int" name="IALGO">    38</i>
   <i type="int" name="IWAVPR">    10</i>
   <i type="int" name="NBANDS">    24</i>
   <i type="int" name="NBANDSLOW">    -1</i>
   <i type="int" name="NBANDSHIGH">    -1</i>
   <i name="NELECT">     32.00000000</i>
   <i type="int" name="TURBO">     0</i>
   <i type="int" name="IRESTART">     0</i>
   <i type="int" name="NREBOOT">     0</i>
   <i type="int" name="NMIN">     0</i>
   <i name="EREF">      0.00000000</i>
   <separator name="electronic smearing" >
    <i type="int" name="ISMEAR">     0</i>
    <i name="SIGMA">      0.01000000</i>
    <i name="KSPACING">      0.50000000</i>
    <i type="logical" name="KGAMMA"> T  </i>
    <i type="logical" name="KBLOWUP"> F  </i>
   </separator>
   <separator name="electronic projectors" >
    <i type="logical" name="LREAL"> F  </i>
    <v name="ROPT">      0.00000000</v>
    <i type="int" name="LMAXPAW">  -100</i>
    <i type="int" name="LMAXMIX">     2</i>
    <i type="logical" name="NLSPLINE"> F  </i>
   </separator>
   <separator name="electronic startup" >
    <i type="int" name="ISTART">     0</i>
    <i type="int" name="ICHARG">     2</i>
    <i type="int" name="INIWAV">     1</i>
   </separator>
   <separator name="electronic spin" >
    <i type="int" name="ISPIN">     1</i>
    <i type="logical" name="LNONCOLLINEAR"> F  </i>
    <v name="MAGMOM">      1.00000000      1.00000000      1.00000000      1.00000000      1.00000000      1.00000000      1.00000000      1.00000000</v>
    <i name="NUPDOWN">     -1.00000000</i>
    <i type="logical" name="LSORBIT"> F  </i>
    <v name="SAXIS">      0.00000000      0.00000000      1.00000000</v>
    <i type="logical" name="LSPIRAL"> F  </i>
    <v name="QSPIRAL">      0.00000000      0.00000000      0.00000000</v>
    <i type="logical" name="LZEROZ"> F  </i>
   </separator>
   <separator name="electronic exchange-correlation" >
    <i type="logical" name="LASPH"> F  </i>
   </separator>
   <separator name="electronic convergence" >
    <i type="int" name="NELM">    60</i>
    <i type="int" name="NELMDL">    -5</i>
    <i type="int" name="NELMIN">     2</i>
    <i name="ENINI">    500.00000000</i>
    <separator name="electronic convergence detail" >
     <i type="logical" name="LDIAG"> T  </i>
     <i type="logical" name="LSUBROT"> F  </i>
     <i name="WEIMIN">      0.00000000</i>
     <i name="EBREAK">      0.00000000</i>
     <i name="DEPER">      0.30000000</i>
     <i type="int" name="NRMM">     4</i>
     <i name="TIME">      0.40000000</i>
    </separator>
   </separator>
   <separator name="electronic mixer" >
    <i name="AMIX">      0.40000000</i>
    <i name="BMIX">      1.00000000</i>
    <i name="AMIN">      0.10000000</i>
    <i name="AMIX_MAG">      1.60000000</i>
    <i name="BMIX_MAG">      1.00000000</i>
    <separator name="electronic mixer details" >
     <i type="int" name="IMIX">     4</i>
     <i type="logical" name="MIXFIRST"> F  </i>
     <i type="int" name="MAXMIX">   -45</i>
     <i name="WC">    100.00000000</i>
     <i type="int" name="INIMIX">     1</i>
     <i type="int" name="MIXPRE">     1</i>
     <i type="int" name="MREMOVE">     5</i>
    </separator>
   </separator>
   <separator name="electronic dipolcorrection" >
    <i type="logical" name="LDIPOL"> F  </i>
    <i type="logical" name="LMONO"> F  </i>
    <i type="int" name="IDIPOL">     0</i>
    <i name="EPSILON">      1.00000000</i>
    <v name="DIPOL">   -100.00000000   -100.00000000   -100.00000000</v>
    <i name="EFIELD">      0.00000000</i>
    <i type="logical" name="LVACPOTAV"> F  </i>
   </separator>
  </separator>
  <separator name="grids" >
   <i type="int" name="NGX">    40</i>
   <i type="int" name="NGY">    40</i>
   <i type="int" name="NGZ">    50</i>
   <i type="int" name="NGXF">    80</i>
   <i type="int" name="NGYF">    80</i>
   <i type="int" name="NGZF">   100</i>
   <i type="logical" name="ADDGRID"> F  </i>
  </separator>
  <separator name="ionic" >
   <i type="int" name="NSW">     0</i>
   <i type="int" name="IBRION">    -1</i>
   <i type="int" name="MDALGO">     0</i>
   <i type="int" name="ISIF">     2</i>
   <i name="PSTRESS">      0.00000000</i>
   <i name="EDIFFG">      0.00000010</i>
   <i type="int" name="NFREE">     0</i>
   <i name="POTIM">      0.50000000</i>
   <i name="SMASS">     -3.00000000</i>
   <i name="SCALEE">      1.00000000</i>
  </separator>
  <separator name="ionic md" >
   <i name="TEBEG">      0.00010000</i>
   <i name="TEEND">      0.00010000</i>
   <i type="int" name="NBLOCK">     1</i>
   <i type="int" name="KBLOCK">     1</i>
   <i type="int" name="NPACO">   256</i>
   <i name="APACO">     10.00000000</i>
  </separator>
  <separator name="symmetry" >
   <i type="int" name="ISYM">     2</i>
   <i name="SYMPREC">      0.00001000</i>
  </separator>
  <separator name="dos" >
   <i type="int" name="LORBIT">     0</i>
   <v name="RWIGS">     -1.00000000</v>
   <i type="int" name="NEDOS">   301</i>
   <i name="EMIN">     10.00000000</i>
   <i name="EMAX">    -10.00000000</i>
   <i name="EFERMI">      0.00000000</i>
  </separator>
  <separator name="writing" >
   <i type="int" name="NWRITE">     2</i>
   <i type="logical" name="LWAVE"> F  </i>
   <i type="logical" name="LDOWNSAMPLE"> F  </i>
   <i type="logical" name="LCHARG"> F  </i>
   <i type="logical" name="LPARD"> F  </i>
   <i type="logical" name="LVTOT"> F  </i>
   <i type="logical" name="LVHAR"> F  </i>
   <i type="logical" name="LELF"> F  </i>
   <i type="logical" name="LOPTICS"> F  </i>
   <v name="STM">      0.00000000      0.00000000      0.00000000      0.00000000      0.00000000      0.00000000      0.00000000</v>
  </separator>
  <separator name="performance" >
   <i type="int" name="NPAR">     8</i>
   <i type="int" name="NSIM">     4</i>
   <i type="int" name="NBLK">    -1</i>
   <i type="logical" name="LPLANE"> T  </i>
   <i type="logical" name="LSCALAPACK"> T  </i>
   <i type="logical" name="LSCAAWARE"> F  </i>
   <i type="logical" name="LSCALU"> F  </i>
   <i type="logical" name="LASYNC"> F  </i>
   <i type="logical" name="LORBITALREAL"> F  </i>
  </separator>
  <separator name="miscellaneous" >
   <i type="int" name="IDIOT">     3</i>
   <i type="int" name="PHON_NSTRUCT">    -1</i>
   <i type="logical" name="LMUSIC"> F  </i>
   <v name="POMASS">     28.08500000</v>
   <v name="DARWINR">      0.00000000</v>
   <v name="DARWINV">      1.00000000</v>
   <i type="logical" name="LCORR"> T  </i>
  </separator>
  <i type="logical" name="GGA_COMPAT"> T  </i>
  <i type="logical" name="LBERRY"> F  </i>
  <i type="int" name="ICORELEVEL">     0</i>
  <i type="logical" name="LDAU"> F  </i>
  <i type="int" name="I_CONSTRAINED_M">     0</i>
  <separator name="electronic exchange-correlation" >
   <i type="string" name="GGA    ">PE</i>
   <i type="string" name="XC_C">1</i>
   <i type="int" name="VOSKOWN">     0</i>
   <i type="logical" name="LHFCALC"> F  </i>
   <i type="string" name="PRECFOCK"></i>
   <i type="logical" name="LSYMGRAD"> F  </i>
   <i type="logical" name="LHFONE"> F  </i>
   <i type="logical" name="LRHFCALC"> F  </i>
   <i type="logical" name="LTHOMAS"> F  </i>
   <i type="logical" name="LMODELHF"> F  </i>
   <i type="logical" name="LFOCKACE"> F  </i>
   <i name="ENCUT4O">     -1.00000000</i>
   <i type="int" name="EXXOEP">     0</i>
   <i type="int" name="FOURORBIT">     0</i>
   <i name="AEXX">      0.00000000</i>
   <i name="HFALPHA">      0.00000000</i>
   <i name="MCALPHA">      0.00000000</i>
   <i name="ALDAX">      1.00000000</i>
   <i name="AGGAX">      1.00000000</i>
   <i name="AMGGAX">      1.00000000</i>
   <i name="ALDAC">      1.00000000</i>
   <i name="AGGAC">      1.00000000</i>
   <i name="AMGGAC">      1.00000000</i>
   <i type="int" name="NKREDX">     1</i>
   <i type="int" name="NKREDY">     1</i>
   <i type="int" name="NKREDZ">     1</i>
   <i type="logical" name="SHIFTRED"> F  </i>
   <i type="logical" name="ODDONLY"> F  </i>
   <i type="logical" name="EVENONLY"> F  </i>
   <i type="int" name="LMAXFOCK">     0</i>
   <i type="int" name="NMAXFOCKAE">     0</i>
   <i type="logical" name="LFOCKAEDFT"> F  </i>
   <i name="HFSCREEN">      0.00000000</i>
   <i name="HFSCREENC">      0.00000000</i>
   <i type="int" name="NBANDSGWLOW">     0</i>
  </separator>
  <separator name="vdW DFT" >
   <i type="logical" name="LUSE_VDW"> F  </i>
   <i type="int" name="IVDW_NL">    -1</i>
   <i type="logical" name="LSPIN_VDW"> F  </i>
   <i name="ZAB_VDW">     -0.84910000</i>
   <i name="GAMMA_VDW">      1.39626340</i>
   <i name="ALPHA_VDW">      0.00000000</i>
   <i name="PARAM1">      0.12340000</i>
   <i name="PARAM2">      1.00000000</i>
   <i name="BPARAM">      6.30000000</i>
   <i name="CPARAM">      0.00930000</i>
  </separator>
  <separator name="model GW" >
   <i type="int" name="MODEL_GW">     0</i>
   <i name="MODEL_EPS0">     12.09885805</i>
   <i name="MODEL_ALPHA">      1.00000000</i>
  </separator>
  <separator name="linear response parameters" >
   <i type="logical" name="LEPSILON"> F  </i>
   <i type="logical" name="LRPA"> F  </i>
   <i type="logical" name="LNABLA"> F  </i>
   <i type="logical" name="LVEL"> F  </i>
   <i name="CSHIFT">      0.10000000</i>
   <i name="OMEGAMAX">     -1.00000000</i>
   <i name="DEG_THRESHOLD">      0.00200000</i>
   <i name="RTIME">     -0.10000000</i>
   <i name="WPLASMAI">      0.00000000</i>
   <v name="DFIELD">      0.00000000      0.00000000      0.00000000</v>
   <v name="WPLASMA">      0.00000000      0.00000000      0.00000000      0.00000000      0.00000000      0.00000000      0.00000000      0.00000000      0.00000000</v>
  </separator>
  <separator name="orbital magnetization" >
   <i type="logical" name="NUCIND"> F  </i>
   <v name="MAGPOS">      0.00000000      0.00000000      0.00000000</v>
   <i type="logical" name="LNICSALL"> T  </i>
   <i type="logical" name="ORBITALMAG"> F  </i>
   <i type="logical" name="LMAGBLOCH"> F  </i>
   <i type="logical" name="LCHIMAG"> F  </i>
   <i type="logical" name="LGAUGE"> T  </i>
   <i type="int" name="MAGATOM">     0</i>
   <v name="MAGDIPOL">      0.00000000      0.00000000      0.00000000</v>
   <v name="AVECCONST">      0.00000000      0.00000000      0.00000000</v>
  </separator>
  <separator name="response functions" >
   <i type="logical" name="LALL_IN_ONE"> F  </i>
   <i type="int" name="IALL_IN_ONE">    -1</i>
   <i type="int" name="NBANDS_WAVE">    -1</i>
   <i type="logical" name="LFINITE_TEMPERATURE"> F  </i>
   <i type="logical" name="LADDER"> F  </i>
   <i type="logical" name="LRPAFORCE"> F  </i>
   <i type="logical" name="LFXC"> F  </i>
   <i type="logical" name="LHARTREE"> T  </i>
   <i type="int" name="IBSE">     0</i>
   <v type="int" name="KPOINT">    -1     0     0     0</v>
   <i type="logical" name="LTCTC"> F  </i>
   <i type="logical" name="LTCTE"> F  </i>
   <i type="logical" name="LTETE"> F  </i>
   <i type="logical" name="LTRIPLET"> F  </i>
   <i type="logical" name="LFXCEPS"> F  </i>
   <i type="logical" name="LFXHEG"> F  </i>
   <i type="int" name="NATURALO">     2</i>
   <i type="logical" name="LHOLEGF"> F  </i>
   <i type="logical" name="L2ORDER"> F  </i>
   <i type="logical" name="LDMP1"> F  </i>
   <i type="logical" name="LMP2LT"> F  </i>
   <i type="logical" name="LSMP2LT"> F  </i>
   <i type="logical" name="LGWLF"> F  </i>
   <i name="ENCUTGW">     -1.60000002</i>
   <i name="ENCUTGWSOFT">     -1.60000002</i>
   <i name="ENCUTLF">     -1.00000000</i>
   <i type="logical" name="ESF_SPLINES"> F  </i>
   <i name="ESF_CONV">      0.01000000</i>
   <i type="int" name="ESF_NINTER">    15</i>
   <i type="int" name="LMAXMP2">    -1</i>
   <i name="SCISSOR">      0.00000000</i>
   <i type="int" name="NOMEGA">     0</i>
   <i type="int" name="NOMEGAR">     0</i>
   <i type="int" name="NBANDSGW">    -1</i>
   <i type="int" name="NBANDSO">    -1</i>
   <i type="int" name="NBANDSV">    -1</i>
   <i type="int" name="NELMGW">     1</i>
   <i type="int" name="NELMHF">     1</i>
   <i type="int" name="DIM">     3</i>
   <i type="int" name="IESPILON">     4</i>
   <i type="int" name="ANTIRES">     0</i>
   <i name="OMEGAMAX">    -30.00000000</i>
   <i name="OMEGAMIN">    -30.00000000</i>
   <i name="OMEGATL">   -200.00000000</i>
   <i type="int" name="OMEGAGRID">     0</i>
   <i name="CSHIFT">     -0.10000000</i>
   <i type="logical" name="LSELFENERGY"> F  </i>
   <i type="logical" name="LSPECTRAL"> F  </i>
   <i type="logical" name="LSPECTRALGW"> F  </i>
   <i type="logical" name="LSINGLES"> F  </i>
   <i type="logical" name="LFERMIGW"> F  </i>
   <i type="logical" name="ODDONLYGW"> F  </i>
   <i type="logical" name="EVENONLYGW"> F  </i>
   <i type="int" name="NKREDLFX">     1</i>
   <i type="int" name="NKREDLFY">     1</i>
   <i type="int" name="NKREDLFZ">     1</i>
   <i type="int" name="MAXMEM">  2800</i>
   <i type="int" name="TELESCOPE">     0</i>
   <i type="int" name="NTAUPAR">    -1</i>
   <i type="int" name="NOMEGAPAR">    -1</i>
   <i name="DAMP_NEWTON">      0.80000001</i>
   <i name="LAMBDA">      1.00000000</i>
  </separator>
  <separator name="External order field" >
   <i name="OFIELD_KAPPA">      0.00000000</i>
   <v name="OFIELD_K">      0.00000000      0.00000000      0.00000000</v>
   <i name="OFIELD_Q6_NEAR">      0.00000000</i>
   <i name="OFIELD_Q6_FAR">      0.00000000</i>
   <i name="OFIELD_A">      0.00000000</i>
  </separator>
  <separator name="optional k-points parameters" >
   <i type="int" name="KPOINTS_OPT_MODE">     1</i>
   <i type="logical" name="LKPOINTS_OPT"> F  </i>
  </separator>
 </parameters>
 <atominfo>
  <atoms>       8 </atoms>
  <types>       1 </types>
  <array name="atoms" >
   <dimension dim="1">ion</dimension>
   <field type="string">element</field>
   <field type="int">atomtype</field>
   <set>
    <rc><c>Si</c><c>   1</c></rc>
    <rc><c>Si</c><c>   1</c></rc>
    <rc><c>Si</c><c>   1</c></rc>
    <rc><c>Si</c><c>   1</c></rc>
    <rc><c>Si</c><c>   1</c></rc>
    <rc><c>Si</c><c>   1</c></rc>
    <rc><c>Si</c><c>   1</c></rc>
    <rc><c>Si</c><c>   1</c></rc>
   </set>
  </array>
  <array name="atomtypes" >
   <dimension dim="1">type</dimension>
   <field type="int">atomspertype</field>
   <field type="string">element</field>
   <field>mass</field>
   <field>valence</field>
   <field type="string">pseudopotential</field>
   <set>
    <rc><c>   8</c><c>Si</c><c>     28.08500000</c><c>      4.00000000</c><c>  PAW_PBE Si 05Jan2001                  </c></rc>
   </set>
  </array>
 </atominfo>
 <structure name="initialpos" >
  <crystal>
   <varray name="basis" >
    <v>      -0.00000000       0.00000000       5.44370237 </v>
    <v>      -5.44370237       0.00000000       0.00000000 </v>
    <v>      -2.72185119      -5.44370237       2.72185119 </v>
   </varray>
   <i name="volume">    161.31810740 </i>
   <varray name="rec_basis" >
    <v>       0.00000000       0.09184925       0.18369851 </v>
    <v>      -0.18369851       0.09184925      -0.00000000 </v>
    <v>       0.00000000      -0.18369851       0.00000000 </v>
   </varray>
  </crystal>
  <varray name="positions" >
   <v>       0.00000000       0.00000000       0.00000000 </v>
   <v>       0.75000000       0.25000000       0.50000000 </v>
   <v>       0.50000000       0.50000000       0.00000000 </v>
   <v>       0.25000000       0.75000000       0.50000000 </v>
   <v>       0.37500000       0.87500000       0.75000000 </v>
   <v>       0.12500000       0.12500000       0.25000000 </v>
   <v>       0.87500000       0.37500000       0.75000000 </v>
   <v>       0.62500000       0.62500000       0.25000000 </v>
  </varray>
 </structure>
 <calculation>
  <scstep>
   <time name="dav">    1.00    1.00</time>
   <time name="total">    1.02    1.02</time>
   <energy>
    <i name="alphaZ">     13.35522965 </i>
    <i name="ewald">   -911.95285847 </i>
    <i name="hartreedc">    -44.45938125 </i>
    <i name="XCdc">    -74.52614964 </i>
    <i name="pawpsdc">    704.99039692 </i>
    <i name="pawaedc">   -564.24414232 </i>
    <i name="eentropy">     -0.00011157 </i>
    <i name="bandstr">    119.74032736 </i>
    <i name="atom">    824.53005375 </i>
    <i name="e_fr_energy">     67.43336442 </i>
    <i name="e_wo_entrp">     67.43347599 </i>
    <i name="e_0_energy">     67.43342020 </i>
   </energy>
  </scstep>
  <scstep>
   <time name="dav">    1.18    1.18</time>
   <time name="total">    1.18    1.18</time>
   <energy>
    <i name="e_fr_energy">    -38.97376527 </i>
    <i name="e_wo_entrp">    -38.97373043 </i>
    <i name="e_0_energy">    -38.97374785 </i>
   </energy>
  </scstep>
  <scstep>
   <time name="dav">    1.18    1.19</time>
   <time name="total">    1.18    1.19</time>
   <energy>
    <i name="e_fr_energy">    -44.00331626 </i>
    <i name="e_wo_entrp">    -44.00331626 </i>
    <i name="e_0_energy">    -44.00331626 </i>
   </energy>
  </scstep>
  <scstep>
   <time name="dav">    1.13    1.14</time>
   <time name="total">    1.13    1.14</time>
   <energy>
    <i name="e_fr_energy">    -44.09207482 </i>
    <i name="e_wo_entrp">    -44.09207482 </i>
    <i name="e_0_energy">    -44.09207482 </i>
   </energy>
  </scstep>
  <scstep>
   <time name="dav">    1.19    1.20</time>
   <time name="total">    1.25    1.25</time>
   <energy>
    <i name="e_fr_energy">    -44.09426727 </i>
    <i name="e_wo_entrp">    -44.09426727 </i>
    <i name="e_0_energy">    -44.09426727 </i>
   </energy>
  </scstep>
  <scstep>
   <time name="dav">    1.09    1.09</time>
   <time name="total">    1.16    1.17</time>
   <energy>
    <i name="e_fr_energy">    -43.60776399 </i>
    <i name="e_wo_entrp">    -43.60776399 </i>
    <i name="e_0_energy">    -43.60776399 </i>
   </energy>
  </scstep>
  <scstep>
   <time name="dav">    1.10    1.10</time>
   <time name="total">    1.17    1.17</time>
   <energy>
    <i name="e_fr_energy">    -43.38559577 </i>
    <i name="e_wo_entrp">    -43.38559577 </i>
    <i name="e_0_energy">    -43.38559577 </i>
   </energy>
  </scstep>
  <scstep>
   <time name="dav">    1.13    1.13</time>
   <time name="total">    1.21    1.21</time>
   <energy>
    <i name="e_fr_energy">    -43.38996180 </i>
    <i name="e_wo_entrp">    -43.38996180 </i>
    <i name="e_0_energy">    -43.38996180 </i>
   </energy>
  </scstep>
  <scstep>
   <time name="dav">    1.15    1.15</time>
   <time name="total">    1.23    1.23</time>
   <energy>
    <i name="e_fr_energy">    -43.39075593 </i>
    <i name="e_wo_entrp">    -43.39075593 </i>
    <i name="e_0_energy">    -43.39075593 </i>
   </energy>
  </scstep>
  <scstep>
   <time name="dav">    1.09    1.09</time>
   <time name="total">    1.17    1.17</time>
   <energy>
    <i name="e_fr_energy">    -43.39097180 </i>
    <i name="e_wo_entrp">    -43.39097180 </i>
    <i name="e_0_energy">    -43.39097180 </i>
   </energy>
  </scstep>
  <scstep>
   <time name="dav">    1.17    1.17</time>
   <time name="total">    1.24    1.25</time>
   <energy>
    <i name="e_fr_energy">    -43.39097278 </i>
    <i name="e_wo_entrp">    -43.39097278 </i>
    <i name="e_0_energy">    -43.39097278 </i>
   </energy>
  </scstep>
  <scstep>
   <time name="dav">    1.12    1.12</time>
   <time name="total">    1.20    1.20</time>
   <energy>
    <i name="e_fr_energy">    -43.39097420 </i>
    <i name="e_wo_entrp">    -43.39097420 </i>
    <i name="e_0_energy">    -43.39097420 </i>
   </energy>
  </scstep>
  <scstep>
   <time name="dav">    1.15    1.15</time>
   <time name="total">    1.23    1.23</time>
   <energy>
    <i name="e_fr_energy">    -43.39097331 </i>
    <i name="e_wo_entrp">    -43.39097331 </i>
    <i name="e_0_energy">    -43.39097331 </i>
   </energy>
  </scstep>
  <scstep>
   <time name="dav">    0.97    0.97</time>
   <time name="total">    1.04    1.04</time>
   <energy>
    <i name="e_fr_energy">    -43.39097335 </i>
    <i name="e_wo_entrp">    -43.39097335 </i>
    <i name="e_0_energy">    -43.39097335 </i>
   </energy>
  </scstep>
  <scstep>
   <time name="dav">    0.90    0.90</time>
   <time name="total">    0.97    0.98</time>
   <energy>
    <i name="e_fr_energy">    -43.39097339 </i>
    <i name="e_wo_entrp">    -43.39097339 </i>
    <i name="e_0_energy">    -43.39097339 </i>
   </energy>
  </scstep>
  <scstep>
   <time name="dav">    0.87    0.87</time>
   <time name="total">    0.89    0.89</time>
   <energy>
    <i name="alphaZ">     13.35522965 </i>
    <i name="ewald">   -911.95285847 </i>
    <i name="hartreedc">    -60.02568450 </i>
    <i name="XCdc">    -71.99052689 </i>
    <i name="pawpsdc">   3421.36151943 </i>
    <i name="pawaedc">  -3281.48470337 </i>
    <i name="eentropy">     -0.00000000 </i>
    <i name="bandstr">     22.81599701 </i>
    <i name="atom">    824.53005375 </i>
    <i name="e_fr_energy">    -43.39097338 </i>
    <i name="e_wo_entrp">    -43.39097338 </i>
    <i name="e_0_energy">    -43.39097338 </i>
   </energy>
  </scstep>
  <structure>
   <crystal>
    <varray name="basis" >
     <v>      -0.00000000       0.00000000       5.44370237 </v>
     <v>      -5.44370237       0.00000000       0.00000000 </v>
     <v>      -2.72185119      -5.44370237       2.72185119 </v>
    </varray>
    <i name="volume">    161.31810740 </i>
    <varray name="rec_basis" >
     <v>       0.00000000       0.09184925       0.18369851 </v>
     <v>      -0.18369851       0.09184925      -0.00000000 </v>
     <v>       0.00000000      -0.18369851       0.00000000 </v>
    </varray>
   </crystal>
   <varray name="positions" >
    <v>       0.00000000       0.00000000       0.00000000 </v>
    <v>       0.75000000       0.25000000       0.50000000 </v>
    <v>       0.50000000       0.50000000       0.00000000 </v>
    <v>       0.25000000       0.75000000       0.50000000 </v>
    <v>       0.37500000       0.87500000       0.75000000 </v>
    <v>       0.12500000       0.12500000       0.25000000 </v>
    <v>       0.87500000       0.37500000       0.75000000 </v>
    <v>       0.62500000       0.62500000       0.25000000 </v>
   </varray>
  </structure>
  <varray name="forces" >
   <v>       0.00000000      -0.00000000      -0.00000000 </v>
   <v>      -0.00000000       0.00000000       0.00000000 </v>
   <v>      -0.00000000      -0.00000000       0.00000000 </v>
   <v>      -0.00000000      -0.00000000      -0.00000000 </v>
   <v>       0.00000000       0.00000000      -0.00000000 </v>
   <v>       0.00000000      -0.00000000       0.00000000 </v>
   <v>       0.00000000      -0.00000000      -0.00000000 </v>
   <v>       0.00000000       0.00000000      -0.00000000 </v>
  </varray>
  <varray name="stress" >
   <v>      12.52661456       0.00000000      -0.00000000 </v>
   <v>       0.00000000      12.52690656       0.00000000 </v>
   <v>      -0.00000000       0.00000000      12.52661456 </v>
  </varray>
  <energy>
   <i name="e_fr_energy">    -43.39097338 </i>
   <i name="e_wo_entrp">    -43.39097338 </i>
   <i name="e_0_energy">    -43.39097338 </i>
  </energy>
  <time name="totalsc">   19.45   19.53</time>
  <eigenvalues>
   <array>
    <dimension dim="1">band</dimension>
    <dimension dim="2">kpoint</dimension>
    <dimension dim="3">spin</dimension>
    <field>eigene</field>
    <field>occ</field>
    <set>
     <set comment="spin 1">
      <set comment="kpoint 1">
       <r>   -6.1548    1.0000 </r>
       <r>   -2.0367    1.0000 </r>
       <r>   -2.0367    1.0000 </r>
       <r>   -1.8761    1.0000 </r>
       <r>   -1.8761    1.0000 </r>
       <r>   -1.8761    1.0000 </r>
       <r>   -1.8761    1.0000 </r>
       <r>    1.9347    1.0000 </r>
       <r>    1.9347    1.0000 </r>
       <r>    1.9347    1.0000 </r>
       <r>    1.9347    1.0000 </r>
       <r>    2.9233    1.0000 </r>
       <r>    2.9233    1.0000 </r>
       <r>    5.7533    1.0000 </r>
       <r>    5.7533    1.0000 </r>
       <r>    5.7533    1.0000 </r>
       <r>    6.4785    0.0000 </r>
       <r>    6.4785    0.0000 </r>
       <r>    8.3161    0.0000 </r>
       <r>    8.3161    0.0000 </r>
       <r>    8.3161    0.0000 </r>
       <r>    9.0445    0.0000 </r>
       <r>   10.0224    0.0000 </r>
       <r>   10.0224    0.0000 </r>
      </set>
      <set comment="kpoint 2">
       <r>   -6.0878    1.0000 </r>
       <r>   -2.4683    1.0000 </r>
       <r>   -2.4314    1.0000 </r>
       <r>   -2.3307    1.0000 </r>
       <r>   -1.5930    1.0000 </r>
       <r>   -1.4596    1.0000 </r>
       <r>   -1.3147    1.0000 </r>
       <r>    1.6151    1.0000 </r>
       <r>    1.7332    1.0000 </r>
       <r>    2.3711    1.0000 </r>
       <r>    2.4801    1.0000 </r>
       <r>    2.7719    1.0000 </r>
       <r>    2.8027    1.0000 </r>
       <r>    5.2002    1.0000 </r>
       <r>    5.4857    1.0000 </r>
       <r>    5.6613    1.0000 </r>
       <r>    6.6902    0.0000 </r>
       <r>    6.8723    0.0000 </r>
       <r>    8.2608    0.0000 </r>
       <r>    8.5626    0.0000 </r>
       <r>    8.5640    0.0000 </r>
       <r>    8.8521    0.0000 </r>
       <r>    9.5064    0.0000 </r>
       <r>    9.6008    0.0000 </r>
      </set>
      <set comment="kpoint 3">
       <r>   -5.8875    1.0000 </r>
       <r>   -3.1685    1.0000 </r>
       <r>   -2.7420    1.0000 </r>
       <r>   -2.6773    1.0000 </r>
       <r>   -1.1897    1.0000 </r>
       <r>   -1.1690    1.0000 </r>
       <r>   -0.6475    1.0000 </r>
       <r>    1.4275    1.0000 </r>
       <r>    1.8532    1.0000 </r>
       <r>    2.4121    1.0000 </r>
       <r>    2.6207    1.0000 </r>
       <r>    2.8985    1.0000 </r>
       <r>    3.2055    1.0000 </r>
       <r>    4.1433    1.0000 </r>
       <r>    4.8686    1.0000 </r>
       <r>    5.4132    1.0000 </r>
       <r>    7.4088    0.0000 </r>
       <r>    7.7197    0.0000 </r>
       <r>    7.7379    0.0000 </r>
       <r>    8.1535    0.0000 </r>
       <r>    8.9196    0.0000 </r>
       <r>    9.0422    0.0000 </r>
       <r>    9.1452    0.0000 </r>
       <r>    9.4998    0.0000 </r>
      </set>
      <set comment="kpoint 4">
       <r>   -5.5574    1.0000 </r>
       <r>   -3.8805    1.0000 </r>
       <r>   -2.9513    1.0000 </r>
       <r>   -2.9140    1.0000 </r>
       <r>   -0.9950    1.0000 </r>
       <r>   -0.8708    1.0000 </r>
       <r>    0.1243    1.0000 </r>
       <r>    1.3784    1.0000 </r>
       <r>    2.0168    1.0000 </r>
       <r>    2.2135    1.0000 </r>
       <r>    2.6315    1.0000 </r>
       <r>    3.0305    1.0000 </r>
       <r>    3.4782    1.0000 </r>
       <r>    3.6581    1.0000 </r>
       <r>    4.1342    1.0000 </r>
       <r>    5.0514    1.0000 </r>
       <r>    7.3287    0.0000 </r>
       <r>    8.0914    0.0000 </r>
       <r>    8.4361    0.0000 </r>
       <r>    8.6047    0.0000 </r>
       <r>    8.8410    0.0000 </r>
       <r>    9.2765    0.0000 </r>
       <r>    9.4705    0.0000 </r>
       <r>    9.8969    0.0000 </r>
      </set>
      <set comment="kpoint 5">
       <r>   -5.1037    1.0000 </r>
       <r>   -4.5380    1.0000 </r>
       <r>   -3.0514    1.0000 </r>
       <r>   -3.0391    1.0000 </r>
       <r>   -0.8451    1.0000 </r>
       <r>   -0.7757    1.0000 </r>
       <r>    0.9989    1.0000 </r>
       <r>    1.4676    1.0000 </r>
       <r>    1.6871    1.0000 </r>
       <r>    1.9716    1.0000 </r>
       <r>    2.7473    1.0000 </r>
       <r>    2.9487    1.0000 </r>
       <r>    3.4042    1.0000 </r>
       <r>    3.4381    1.0000 </r>
       <r>    4.0604    1.0000 </r>
       <r>    4.5957    1.0000 </r>
       <r>    7.9979    0.0000 </r>
       <r>    8.1328    0.0000 </r>
       <r>    8.3014    0.0000 </r>
       <r>    9.3222    0.0000 </r>
       <r>    9.5575    0.0000 </r>
       <r>    9.6086    0.0000 </r>
       <r>    9.6443    0.0000 </r>
       <r>    9.8799    0.0000 </r>
      </set>
      <set comment="kpoint 6">
       <r>   -5.9944    1.0000 </r>
       <r>   -2.8030    1.0000 </r>
       <r>   -2.6191    1.0000 </r>
       <r>   -2.6191    1.0000 </r>
       <r>   -1.2267    1.0000 </r>
       <r>   -1.2267    1.0000 </r>
       <r>   -1.1588    1.0000 </r>
       <r>    1.7096    1.0000 </r>
       <r>    1.7096    1.0000 </r>
       <r>    2.4301    1.0000 </r>
       <r>    2.7036    1.0000 </r>
       <r>    2.7036    1.0000 </r>
       <r>    3.0567    1.0000 </r>
       <r>    4.4122    1.0000 </r>
       <r>    5.5178    1.0000 </r>
       <r>    5.5178    1.0000 </r>
       <r>    6.6157    0.0000 </r>
       <r>    7.5043    0.0000 </r>
       <r>    8.2818    0.0000 </r>
       <r>    8.3443    0.0000 </r>
       <r>    8.3443    0.0000 </r>
       <r>    8.6631    0.0000 </r>
       <r>    8.6631    0.0000 </r>
       <r>   10.0300    0.0000 </r>
      </set>
      <set comment="kpoint 7">
       <r>   -5.7692    1.0000 </r>
       <r>   -3.2686    1.0000 </r>
       <r>   -3.0875    1.0000 </r>
       <r>   -2.7870    1.0000 </r>
       <r>   -1.1576    1.0000 </r>
       <r>   -0.7983    1.0000 </r>
       <r>   -0.6265    1.0000 </r>
       <r>    1.6103    1.0000 </r>
       <r>    2.0373    1.0000 </r>
       <r>    2.1571    1.0000 </r>
       <r>    3.0756    1.0000 </r>
       <r>    3.0796    1.0000 </r>
       <r>    3.3286    1.0000 </r>
       <r>    3.3652    1.0000 </r>
       <r>    4.9755    1.0000 </r>
       <r>    5.3902    1.0000 </r>
       <r>    7.0767    0.0000 </r>
       <r>    7.3932    0.0000 </r>
       <r>    7.9848    0.0000 </r>
       <r>    8.2542    0.0000 </r>
       <r>    8.4994    0.0000 </r>
       <r>    8.7453    0.0000 </r>
       <r>    9.2053    0.0000 </r>
       <r>    9.6779    0.0000 </r>
      </set>
      <set comment="kpoint 8">
       <r>   -5.4170    1.0000 </r>
       <r>   -3.9611    1.0000 </r>
       <r>   -3.2686    1.0000 </r>
       <r>   -2.8902    1.0000 </r>
       <r>   -1.1001    1.0000 </r>
       <r>   -0.6265    1.0000 </r>
       <r>    0.1243    1.0000 </r>
       <r>    1.5921    1.0000 </r>
       <r>    2.0373    1.0000 </r>
       <r>    2.3241    1.0000 </r>
       <r>    2.5539    1.0000 </r>
       <r>    3.0796    1.0000 </r>
       <r>    3.5112    1.0000 </r>
       <r>    3.5458    1.0000 </r>
       <r>    4.2490    1.0000 </r>
       <r>    5.0880    1.0000 </r>
       <r>    7.3260    0.0000 </r>
       <r>    7.7850    0.0000 </r>
       <r>    7.9848    0.0000 </r>
       <r>    8.3434    0.0000 </r>
       <r>    8.9529    0.0000 </r>
       <r>    9.5188    0.0000 </r>
       <r>    9.6779    0.0000 </r>
       <r>    9.7546    0.0000 </r>
      </set>
      <set comment="kpoint 9">
       <r>   -4.9463    1.0000 </r>
       <r>   -4.5988    1.0000 </r>
       <r>   -3.3400    1.0000 </r>
       <r>   -2.9068    1.0000 </r>
       <r>   -1.0485    1.0000 </r>
       <r>   -0.6515    1.0000 </r>
       <r>    0.9850    1.0000 </r>
       <r>    1.3566    1.0000 </r>
       <r>    1.6536    1.0000 </r>
       <r>    1.9257    1.0000 </r>
       <r>    3.1911    1.0000 </r>
       <r>    3.2044    1.0000 </r>
       <r>    3.3639    1.0000 </r>
       <r>    3.4939    1.0000 </r>
       <r>    3.9364    1.0000 </r>
       <r>    4.6679    1.0000 </r>
       <r>    7.7330    0.0000 </r>
       <r>    8.2749    0.0000 </r>
       <r>    8.4083    0.0000 </r>
       <r>    9.0679    0.0000 </r>
       <r>    9.1728    0.0000 </r>
       <r>    9.2278    0.0000 </r>
       <r>    9.5917    0.0000 </r>
       <r>   10.2743    0.0000 </r>
      </set>
      <set comment="kpoint 10">
       <r>   -5.1419    1.0000 </r>
       <r>   -4.3733    1.0000 </r>
       <r>   -3.3007    1.0000 </r>
       <r>   -2.8291    1.0000 </r>
       <r>   -1.0539    1.0000 </r>
       <r>   -0.7704    1.0000 </r>
       <r>    0.4910    1.0000 </r>
       <r>    1.7284    1.0000 </r>
       <r>    1.7835    1.0000 </r>
       <r>    1.9388    1.0000 </r>
       <r>    2.7990    1.0000 </r>
       <r>    2.8273    1.0000 </r>
       <r>    3.7785    1.0000 </r>
       <r>    3.9357    1.0000 </r>
       <r>    4.1619    1.0000 </r>
       <r>    4.3231    1.0000 </r>
       <r>    7.7975    0.0000 </r>
       <r>    7.9055    0.0000 </r>
       <r>    8.5184    0.0000 </r>
       <r>    8.9575    0.0000 </r>
       <r>    9.3520    0.0000 </r>
       <r>    9.6899    0.0000 </r>
       <r>    9.7565    0.0000 </r>
       <r>   10.2395    0.0000 </r>
      </set>
      <set comment="kpoint 11">
       <r>   -5.5705    1.0000 </r>
       <r>   -3.7295    1.0000 </r>
       <r>   -3.1535    1.0000 </r>
       <r>   -2.6550    1.0000 </r>
       <r>   -1.2088    1.0000 </r>
       <r>   -0.9056    1.0000 </r>
       <r>   -0.2547    1.0000 </r>
       <r>    1.6839    1.0000 </r>
       <r>    1.7869    1.0000 </r>
       <r>    2.2210    1.0000 </r>
       <r>    2.7987    1.0000 </r>
       <r>    2.9623    1.0000 </r>
       <r>    3.6116    1.0000 </r>
       <r>    3.7712    1.0000 </r>
       <r>    4.6117    1.0000 </r>
       <r>    4.7458    1.0000 </r>
       <r>    7.5849    0.0000 </r>
       <r>    7.8310    0.0000 </r>
       <r>    7.9543    0.0000 </r>
       <r>    8.7254    0.0000 </r>
       <r>    9.2705    0.0000 </r>
       <r>    9.3625    0.0000 </r>
       <r>    9.4792    0.0000 </r>
       <r>    9.9606    0.0000 </r>
      </set>
      <set comment="kpoint 12">
       <r>   -5.8744    1.0000 </r>
       <r>   -3.0824    1.0000 </r>
       <r>   -2.9068    1.0000 </r>
       <r>   -2.3881    1.0000 </r>
       <r>   -1.5430    1.0000 </r>
       <r>   -1.0485    1.0000 </r>
       <r>   -0.8559    1.0000 </r>
       <r>    1.6536    1.0000 </r>
       <r>    1.8152    1.0000 </r>
       <r>    1.9850    1.0000 </r>
       <r>    2.9600    1.0000 </r>
       <r>    3.0742    1.0000 </r>
       <r>    3.1911    1.0000 </r>
       <r>    3.9994    1.0000 </r>
       <r>    4.9744    1.0000 </r>
       <r>    5.3743    1.0000 </r>
       <r>    6.9711    0.0000 </r>
       <r>    8.1913    0.0000 </r>
       <r>    8.2749    0.0000 </r>
       <r>    8.3418    0.0000 </r>
       <r>    8.8043    0.0000 </r>
       <r>    9.0358    0.0000 </r>
       <r>    9.2060    0.0000 </r>
       <r>    9.4169    0.0000 </r>
      </set>
      <set comment="kpoint 13">
       <r>   -6.0476    1.0000 </r>
       <r>   -2.5857    1.0000 </r>
       <r>   -2.5857    1.0000 </r>
       <r>   -2.0900    1.0000 </r>
       <r>   -1.9204    1.0000 </r>
       <r>   -1.2453    1.0000 </r>
       <r>   -1.2453    1.0000 </r>
       <r>    1.6517    1.0000 </r>
       <r>    1.6517    1.0000 </r>
       <r>    2.3622    1.0000 </r>
       <r>    2.6157    1.0000 </r>
       <r>    2.6157    1.0000 </r>
       <r>    3.0090    1.0000 </r>
       <r>    4.8805    1.0000 </r>
       <r>    5.3316    1.0000 </r>
       <r>    5.7039    1.0000 </r>
       <r>    6.5774    0.0000 </r>
       <r>    7.4034    0.0000 </r>
       <r>    8.4265    0.0000 </r>
       <r>    8.5124    0.0000 </r>
       <r>    8.5676    0.0000 </r>
       <r>    9.3661    0.0000 </r>
       <r>    9.3661    0.0000 </r>
       <r>    9.6579    0.0000 </r>
      </set>
      <set comment="kpoint 14">
       <r>   -5.5228    1.0000 </r>
       <r>   -3.3534    1.0000 </r>
       <r>   -3.3074    1.0000 </r>
       <r>   -3.3074    1.0000 </r>
       <r>   -0.7223    1.0000 </r>
       <r>   -0.7223    1.0000 </r>
       <r>   -0.6096    1.0000 </r>
       <r>    2.0921    1.0000 </r>
       <r>    2.0921    1.0000 </r>
       <r>    2.1294    1.0000 </r>
       <r>    2.3453    1.0000 </r>
       <r>    3.4384    1.0000 </r>
       <r>    3.4871    1.0000 </r>
       <r>    3.4871    1.0000 </r>
       <r>    5.0964    1.0000 </r>
       <r>    5.0964    1.0000 </r>
       <r>    7.1162    0.0000 </r>
       <r>    7.2809    0.0000 </r>
       <r>    7.2809    0.0000 </r>
       <r>    7.8656    0.0000 </r>
       <r>    9.1897    0.0000 </r>
       <r>    9.1897    0.0000 </r>
       <r>    9.5976    0.0000 </r>
       <r>   10.1320    0.0000 </r>
      </set>
      <set comment="kpoint 15">
       <r>   -5.1556    1.0000 </r>
       <r>   -3.9436    1.0000 </r>
       <r>   -3.5205    1.0000 </r>
       <r>   -3.2611    1.0000 </r>
       <r>   -0.8306    1.0000 </r>
       <r>   -0.6475    1.0000 </r>
       <r>   -0.0536    1.0000 </r>
       <r>    1.3611    1.0000 </r>
       <r>    2.0813    1.0000 </r>
       <r>    2.3891    1.0000 </r>
       <r>    2.7348    1.0000 </r>
       <r>    3.4867    1.0000 </r>
       <r>    3.6082    1.0000 </r>
       <r>    3.6561    1.0000 </r>
       <r>    4.5877    1.0000 </r>
       <r>    4.9708    1.0000 </r>
       <r>    7.4069    0.0000 </r>
       <r>    7.5683    0.0000 </r>
       <r>    7.6937    0.0000 </r>
       <r>    7.8684    0.0000 </r>
       <r>    9.1131    0.0000 </r>
       <r>    9.5097    0.0000 </r>
       <r>    9.9414    0.0000 </r>
       <r>   10.3329    0.0000 </r>
      </set>
      <set comment="kpoint 16">
       <r>   -4.6825    1.0000 </r>
       <r>   -4.5446    1.0000 </r>
       <r>   -3.5832    1.0000 </r>
       <r>   -3.1258    1.0000 </r>
       <r>   -0.9251    1.0000 </r>
       <r>   -0.7880    1.0000 </r>
       <r>    0.4796    1.0000 </r>
       <r>    0.7518    1.0000 </r>
       <r>    1.9467    1.0000 </r>
       <r>    2.6058    1.0000 </r>
       <r>    3.2278    1.0000 </r>
       <r>    3.3681    1.0000 </r>
       <r>    3.8414    1.0000 </r>
       <r>    3.9244    1.0000 </r>
       <r>    3.9273    1.0000 </r>
       <r>    4.6699    1.0000 </r>
       <r>    7.7118    0.0000 </r>
       <r>    8.1193    0.0000 </r>
       <r>    8.6131    0.0000 </r>
       <r>    8.7139    0.0000 </r>
       <r>    8.9517    0.0000 </r>
       <r>    9.0643    0.0000 </r>
       <r>    9.4577    0.0000 </r>
       <r>    9.7870    0.0000 </r>
      </set>
      <set comment="kpoint 17">
       <r>   -5.0560    1.0000 </r>
       <r>   -4.1345    1.0000 </r>
       <r>   -3.5429    1.0000 </r>
       <r>   -2.9068    1.0000 </r>
       <r>   -1.0485    1.0000 </r>
       <r>   -0.9147    1.0000 </r>
       <r>   -0.2568    1.0000 </r>
       <r>    1.6508    1.0000 </r>
       <r>    1.6536    1.0000 </r>
       <r>    2.5775    1.0000 </r>
       <r>    3.1911    1.0000 </r>
       <r>    3.2372    1.0000 </r>
       <r>    3.7248    1.0000 </r>
       <r>    4.1090    1.0000 </r>
       <r>    4.2770    1.0000 </r>
       <r>    4.5134    1.0000 </r>
       <r>    7.9721    0.0000 </r>
       <r>    8.0848    0.0000 </r>
       <r>    8.2749    0.0000 </r>
       <r>    8.3618    0.0000 </r>
       <r>    9.0132    0.0000 </r>
       <r>    9.5116    0.0000 </r>
       <r>    9.8034    0.0000 </r>
       <r>   10.2694    0.0000 </r>
      </set>
      <set comment="kpoint 18">
       <r>   -5.4547    1.0000 </r>
       <r>   -3.5832    1.0000 </r>
       <r>   -3.4054    1.0000 </r>
       <r>   -2.6210    1.0000 </r>
       <r>   -1.2768    1.0000 </r>
       <r>   -0.9819    1.0000 </r>
       <r>   -0.7880    1.0000 </r>
       <r>    1.4800    1.0000 </r>
       <r>    2.4134    1.0000 </r>
       <r>    2.5887    1.0000 </r>
       <r>    2.6058    1.0000 </r>
       <r>    3.2896    1.0000 </r>
       <r>    3.8414    1.0000 </r>
       <r>    3.9011    1.0000 </r>
       <r>    3.9961    1.0000 </r>
       <r>    5.1635    1.0000 </r>
       <r>    7.3483    0.0000 </r>
       <r>    8.0373    0.0000 </r>
       <r>    8.4557    0.0000 </r>
       <r>    8.6131    0.0000 </r>
       <r>    8.9517    0.0000 </r>
       <r>    8.9996    0.0000 </r>
       <r>    9.7047    0.0000 </r>
       <r>    9.7707    0.0000 </r>
      </set>
      <set comment="kpoint 19">
       <r>   -5.7293    1.0000 </r>
       <r>   -3.1834    1.0000 </r>
       <r>   -3.1834    1.0000 </r>
       <r>   -2.3386    1.0000 </r>
       <r>   -1.5723    1.0000 </r>
       <r>   -1.0016    1.0000 </r>
       <r>   -1.0016    1.0000 </r>
       <r>    1.6050    1.0000 </r>
       <r>    2.1007    1.0000 </r>
       <r>    2.1007    1.0000 </r>
       <r>    3.2604    1.0000 </r>
       <r>    3.4192    1.0000 </r>
       <r>    3.4192    1.0000 </r>
       <r>    3.4343    1.0000 </r>
       <r>    4.3998    1.0000 </r>
       <r>    5.5303    1.0000 </r>
       <r>    6.8682    0.0000 </r>
       <r>    8.7445    0.0000 </r>
       <r>    8.7571    0.0000 </r>
       <r>    8.9418    0.0000 </r>
       <r>    8.9418    0.0000 </r>
       <r>    8.9635    0.0000 </r>
       <r>    8.9660    0.0000 </r>
       <r>    8.9660    0.0000 </r>
      </set>
      <set comment="kpoint 20">
       <r>   -4.7873    1.0000 </r>
       <r>   -3.8202    1.0000 </r>
       <r>   -3.8202    1.0000 </r>
       <r>   -3.6822    1.0000 </r>
       <r>   -0.8213    1.0000 </r>
       <r>   -0.2500    1.0000 </r>
       <r>   -0.2500    1.0000 </r>
       <r>    0.4439    1.0000 </r>
       <r>    2.5530    1.0000 </r>
       <r>    2.5530    1.0000 </r>
       <r>    2.9941    1.0000 </r>
       <r>    3.6448    1.0000 </r>
       <r>    3.6448    1.0000 </r>
       <r>    3.9909    1.0000 </r>
       <r>    4.7601    1.0000 </r>
       <r>    4.7601    1.0000 </r>
       <r>    7.4943    0.0000 </r>
       <r>    7.7959    0.0000 </r>
       <r>    8.0002    0.0000 </r>
       <r>    8.0002    0.0000 </r>
       <r>    9.2600    0.0000 </r>
       <r>    9.2600    0.0000 </r>
       <r>    9.8515    0.0000 </r>
       <r>    9.9539    0.0000 </r>
      </set>
      <set comment="kpoint 21">
       <r>   -4.3733    1.0000 </r>
       <r>   -4.3431    1.0000 </r>
       <r>   -3.7479    1.0000 </r>
       <r>   -3.5938    1.0000 </r>
       <r>   -0.9912    1.0000 </r>
       <r>   -0.4402    1.0000 </r>
       <r>   -0.3359    1.0000 </r>
       <r>    0.4910    1.0000 </r>
       <r>    2.0590    1.0000 </r>
       <r>    2.7990    1.0000 </r>
       <r>    3.4979    1.0000 </r>
       <r>    3.6780    1.0000 </r>
       <r>    4.1619    1.0000 </r>
       <r>    4.2434    1.0000 </r>
       <r>    4.3770    1.0000 </r>
       <r>    4.6439    1.0000 </r>
       <r>    7.5850    0.0000 </r>
       <r>    8.1078    0.0000 </r>
       <r>    8.5184    0.0000 </r>
       <r>    8.8188    0.0000 </r>
       <r>    8.9609    0.0000 </r>
       <r>    9.0958    0.0000 </r>
       <r>    9.2744    0.0000 </r>
       <r>    9.3492    0.0000 </r>
      </set>
      <set comment="kpoint 22">
       <r>   -4.8467    1.0000 </r>
       <r>   -3.8967    1.0000 </r>
       <r>   -3.7190    1.0000 </r>
       <r>   -3.2788    1.0000 </r>
       <r>   -1.0815    1.0000 </r>
       <r>   -0.8898    1.0000 </r>
       <r>   -0.6733    1.0000 </r>
       <r>    1.2991    1.0000 </r>
       <r>    1.5831    1.0000 </r>
       <r>    2.9950    1.0000 </r>
       <r>    3.5523    1.0000 </r>
       <r>    3.7478    1.0000 </r>
       <r>    3.7999    1.0000 </r>
       <r>    4.3645    1.0000 </r>
       <r>    4.4004    1.0000 </r>
       <r>    4.7853    1.0000 </r>
       <r>    7.8689    0.0000 </r>
       <r>    7.9451    0.0000 </r>
       <r>    7.9523    0.0000 </r>
       <r>    8.8290    0.0000 </r>
       <r>    8.9738    0.0000 </r>
       <r>    9.1116    0.0000 </r>
       <r>    9.1709    0.0000 </r>
       <r>    9.5908    0.0000 </r>
      </set>
      <set comment="kpoint 23">
       <r>   -5.2114    1.0000 </r>
       <r>   -3.6014    1.0000 </r>
       <r>   -3.6014    1.0000 </r>
       <r>   -2.9140    1.0000 </r>
       <r>   -1.0711    1.0000 </r>
       <r>   -1.0711    1.0000 </r>
       <r>   -0.9950    1.0000 </r>
       <r>    1.3784    1.0000 </r>
       <r>    2.0453    1.0000 </r>
       <r>    3.1710    1.0000 </r>
       <r>    3.1710    1.0000 </r>
       <r>    3.3618    1.0000 </r>
       <r>    3.6581    1.0000 </r>
       <r>    4.1190    1.0000 </r>
       <r>    4.1190    1.0000 </r>
       <r>    5.1919    1.0000 </r>
       <r>    7.3287    0.0000 </r>
       <r>    8.3203    0.0000 </r>
       <r>    8.3203    0.0000 </r>
       <r>    8.7753    0.0000 </r>
       <r>    8.8752    0.0000 </r>
       <r>    8.8752    0.0000 </r>
       <r>    9.3061    0.0000 </r>
       <r>    9.5884    0.0000 </r>
      </set>
      <set comment="kpoint 24">
       <r>   -4.0904    1.0000 </r>
       <r>   -4.0904    1.0000 </r>
       <r>   -4.0029    1.0000 </r>
       <r>   -3.8253    1.0000 </r>
       <r>   -1.1326    1.0000 </r>
       <r>   -0.9417    1.0000 </r>
       <r>    0.2003    1.0000 </r>
       <r>    0.2003    1.0000 </r>
       <r>    2.1469    1.0000 </r>
       <r>    2.1469    1.0000 </r>
       <r>    4.2728    1.0000 </r>
       <r>    4.2775    1.0000 </r>
       <r>    4.2775    1.0000 </r>
       <r>    4.4813    1.0000 </r>
       <r>    4.5849    1.0000 </r>
       <r>    4.5849    1.0000 </r>
       <r>    7.2940    0.0000 </r>
       <r>    7.5490    0.0000 </r>
       <r>    8.4485    0.0000 </r>
       <r>    8.4485    0.0000 </r>
       <r>    9.0355    0.0000 </r>
       <r>    9.1220    0.0000 </r>
       <r>    9.1220    0.0000 </r>
       <r>    9.2571    0.0000 </r>
      </set>
      <set comment="kpoint 25">
       <r>   -4.5199    1.0000 </r>
       <r>   -3.8149    1.0000 </r>
       <r>   -3.8149    1.0000 </r>
       <r>   -3.7119    1.0000 </r>
       <r>   -1.1648    1.0000 </r>
       <r>   -1.1648    1.0000 </r>
       <r>   -0.1931    1.0000 </r>
       <r>    0.8251    1.0000 </r>
       <r>    1.7133    1.0000 </r>
       <r>    2.4231    1.0000 </r>
       <r>    4.1630    1.0000 </r>
       <r>    4.3243    1.0000 </r>
       <r>    4.3243    1.0000 </r>
       <r>    4.5126    1.0000 </r>
       <r>    4.5126    1.0000 </r>
       <r>    4.7067    1.0000 </r>
       <r>    7.4859    0.0000 </r>
       <r>    7.4859    0.0000 </r>
       <r>    7.9050    0.0000 </r>
       <r>    8.4668    0.0000 </r>
       <r>    9.0530    0.0000 </r>
       <r>    9.0530    0.0000 </r>
       <r>    9.2061    0.0000 </r>
       <r>    9.2061    0.0000 </r>
      </set>
      <set comment="kpoint 26">
       <r>   -6.0869    1.0000 </r>
       <r>   -2.9544    1.0000 </r>
       <r>   -1.9016    1.0000 </r>
       <r>   -1.9016    1.0000 </r>
       <r>   -1.9016    1.0000 </r>
       <r>   -1.9016    1.0000 </r>
       <r>   -1.0381    1.0000 </r>
       <r>    2.0530    1.0000 </r>
       <r>    2.0530    1.0000 </r>
       <r>    2.0530    1.0000 </r>
       <r>    2.0530    1.0000 </r>
       <r>    2.9846    1.0000 </r>
       <r>    2.9846    1.0000 </r>
       <r>    5.3297    1.0000 </r>
       <r>    5.4933    1.0000 </r>
       <r>    5.4933    1.0000 </r>
       <r>    6.3452    0.0000 </r>
       <r>    6.7954    0.0000 </r>
       <r>    8.1559    0.0000 </r>
       <r>    8.6596    0.0000 </r>
       <r>    8.6596    0.0000 </r>
       <r>    8.9245    0.0000 </r>
       <r>    8.9245    0.0000 </r>
       <r>    8.9245    0.0000 </r>
      </set>
      <set comment="kpoint 27">
       <r>   -6.0803    1.0000 </r>
       <r>   -2.5319    1.0000 </r>
       <r>   -2.4867    1.0000 </r>
       <r>   -2.3154    1.0000 </r>
       <r>   -1.4845    1.0000 </r>
       <r>   -1.4799    1.0000 </r>
       <r>   -1.2995    1.0000 </r>
       <r>    1.6141    1.0000 </r>
       <r>    1.7608    1.0000 </r>
       <r>    2.3687    1.0000 </r>
       <r>    2.5036    1.0000 </r>
       <r>    2.7756    1.0000 </r>
       <r>    2.8141    1.0000 </r>
       <r>    5.1252    1.0000 </r>
       <r>    5.4550    1.0000 </r>
       <r>    5.6843    1.0000 </r>
       <r>    6.6772    0.0000 </r>
       <r>    6.9051    0.0000 </r>
       <r>    8.2998    0.0000 </r>
       <r>    8.5466    0.0000 </r>
       <r>    8.5568    0.0000 </r>
       <r>    8.7096    0.0000 </r>
       <r>    9.4502    0.0000 </r>
       <r>    9.5719    0.0000 </r>
      </set>
      <set comment="kpoint 28">
       <r>   -5.9396    1.0000 </r>
       <r>   -2.9593    1.0000 </r>
       <r>   -2.8967    1.0000 </r>
       <r>   -2.0724    1.0000 </r>
       <r>   -1.8749    1.0000 </r>
       <r>   -0.9465    1.0000 </r>
       <r>   -0.8773    1.0000 </r>
       <r>    1.5311    1.0000 </r>
       <r>    1.5860    1.0000 </r>
       <r>    2.4384    1.0000 </r>
       <r>    2.4641    1.0000 </r>
       <r>    3.0034    1.0000 </r>
       <r>    3.0457    1.0000 </r>
       <r>    4.6234    1.0000 </r>
       <r>    5.0783    1.0000 </r>
       <r>    5.0941    1.0000 </r>
       <r>    7.4804    0.0000 </r>
       <r>    7.5189    0.0000 </r>
       <r>    7.8701    0.0000 </r>
       <r>    8.6238    0.0000 </r>
       <r>    8.9034    0.0000 </r>
       <r>    9.2406    0.0000 </r>
       <r>    9.2484    0.0000 </r>
       <r>   10.0025    0.0000 </r>
      </set>
      <set comment="kpoint 29">
       <r>   -5.6664    1.0000 </r>
       <r>   -3.5635    1.0000 </r>
       <r>   -3.3154    1.0000 </r>
       <r>   -2.1824    1.0000 </r>
       <r>   -1.6550    1.0000 </r>
       <r>   -0.5874    1.0000 </r>
       <r>   -0.3005    1.0000 </r>
       <r>    1.5383    1.0000 </r>
       <r>    1.7566    1.0000 </r>
       <r>    2.0765    1.0000 </r>
       <r>    2.2272    1.0000 </r>
       <r>    3.6432    1.0000 </r>
       <r>    3.6433    1.0000 </r>
       <r>    3.7302    1.0000 </r>
       <r>    4.5380    1.0000 </r>
       <r>    4.6281    1.0000 </r>
       <r>    7.5082    0.0000 </r>
       <r>    7.9548    0.0000 </r>
       <r>    8.4628    0.0000 </r>
       <r>    8.5617    0.0000 </r>
       <r>    8.6527    0.0000 </r>
       <r>    9.8821    0.0000 </r>
       <r>    9.9228    0.0000 </r>
       <r>   10.0719    0.0000 </r>
      </set>
      <set comment="kpoint 30">
       <r>   -5.2647    1.0000 </r>
       <r>   -4.2244    1.0000 </r>
       <r>   -3.5522    1.0000 </r>
       <r>   -2.3946    1.0000 </r>
       <r>   -1.3839    1.0000 </r>
       <r>   -0.3620    1.0000 </r>
       <r>    0.4574    1.0000 </r>
       <r>    1.6197    1.0000 </r>
       <r>    1.7513    1.0000 </r>
       <r>    2.2091    1.0000 </r>
       <r>    2.3096    1.0000 </r>
       <r>    2.5377    1.0000 </r>
       <r>    3.9245    1.0000 </r>
       <r>    4.0385    1.0000 </r>
       <r>    4.2423    1.0000 </r>
       <r>    4.2473    1.0000 </r>
       <r>    7.3104    0.0000 </r>
       <r>    7.8288    0.0000 </r>
       <r>    8.7526    0.0000 </r>
       <r>    9.4197    0.0000 </r>
       <r>    9.5251    0.0000 </r>
       <r>    9.6015    0.0000 </r>
       <r>    9.6997    0.0000 </r>
       <r>   10.4448    0.0000 </r>
      </set>
      <set comment="kpoint 31">
       <r>   -4.8205    1.0000 </r>
       <r>   -4.7417    1.0000 </r>
       <r>   -3.6677    1.0000 </r>
       <r>   -2.5059    1.0000 </r>
       <r>   -1.3061    1.0000 </r>
       <r>   -0.1870    1.0000 </r>
       <r>    1.3243    1.0000 </r>
       <r>    1.4726    1.0000 </r>
       <r>    1.5374    1.0000 </r>
       <r>    1.8248    1.0000 </r>
       <r>    2.7099    1.0000 </r>
       <r>    2.8255    1.0000 </r>
       <r>    3.3102    1.0000 </r>
       <r>    3.7105    1.0000 </r>
       <r>    3.8309    1.0000 </r>
       <r>    4.8001    1.0000 </r>
       <r>    7.2998    0.0000 </r>
       <r>    8.5926    0.0000 </r>
       <r>    8.7267    0.0000 </r>
       <r>    8.8365    0.0000 </r>
       <r>    8.8445    0.0000 </r>
       <r>    9.2376    0.0000 </r>
       <r>    9.7911    0.0000 </r>
       <r>   10.4907    0.0000 </r>
      </set>
      <set comment="kpoint 32">
       <r>   -5.3190    1.0000 </r>
       <r>   -4.1102    1.0000 </r>
       <r>   -3.6617    1.0000 </r>
       <r>   -2.5138    1.0000 </r>
       <r>   -1.3633    1.0000 </r>
       <r>   -0.1186    1.0000 </r>
       <r>    0.4852    1.0000 </r>
       <r>    1.4568    1.0000 </r>
       <r>    2.1371    1.0000 </r>
       <r>    2.2923    1.0000 </r>
       <r>    2.7586    1.0000 </r>
       <r>    3.2116    1.0000 </r>
       <r>    3.2395    1.0000 </r>
       <r>    3.3761    1.0000 </r>
       <r>    3.5546    1.0000 </r>
       <r>    5.2405    1.0000 </r>
       <r>    7.3685    0.0000 </r>
       <r>    7.4683    0.0000 </r>
       <r>    8.4932    0.0000 </r>
       <r>    8.5426    0.0000 </r>
       <r>    8.8266    0.0000 </r>
       <r>    9.0411    0.0000 </r>
       <r>    9.2861    0.0000 </r>
       <r>    9.6033    0.0000 </r>
      </set>
      <set comment="kpoint 33">
       <r>   -5.7022    1.0000 </r>
       <r>   -3.5362    1.0000 </r>
       <r>   -3.3931    1.0000 </r>
       <r>   -2.4167    1.0000 </r>
       <r>   -1.4830    1.0000 </r>
       <r>   -0.4107    1.0000 </r>
       <r>   -0.2507    1.0000 </r>
       <r>    1.5176    1.0000 </r>
       <r>    2.3245    1.0000 </r>
       <r>    2.5162    1.0000 </r>
       <r>    2.8989    1.0000 </r>
       <r>    2.9802    1.0000 </r>
       <r>    3.2995    1.0000 </r>
       <r>    3.3435    1.0000 </r>
       <r>    4.3351    1.0000 </r>
       <r>    5.5107    1.0000 </r>
       <r>    6.9801    0.0000 </r>
       <r>    7.4523    0.0000 </r>
       <r>    7.8031    0.0000 </r>
       <r>    8.1362    0.0000 </r>
       <r>    8.4076    0.0000 </r>
       <r>    8.7567    0.0000 </r>
       <r>    8.7622    0.0000 </r>
       <r>    9.0204    0.0000 </r>
      </set>
      <set comment="kpoint 34">
       <r>   -5.9600    1.0000 </r>
       <r>   -3.2966    1.0000 </r>
       <r>   -2.6323    1.0000 </r>
       <r>   -2.2132    1.0000 </r>
       <r>   -1.6477    1.0000 </r>
       <r>   -1.2081    1.0000 </r>
       <r>   -0.5925    1.0000 </r>
       <r>    1.7191    1.0000 </r>
       <r>    2.0647    1.0000 </r>
       <r>    2.4431    1.0000 </r>
       <r>    2.7404    1.0000 </r>
       <r>    2.8631    1.0000 </r>
       <r>    2.9661    1.0000 </r>
       <r>    4.4300    1.0000 </r>
       <r>    5.0558    1.0000 </r>
       <r>    5.5707    1.0000 </r>
       <r>    6.6475    0.0000 </r>
       <r>    7.2514    0.0000 </r>
       <r>    7.6587    0.0000 </r>
       <r>    8.2836    0.0000 </r>
       <r>    8.2928    0.0000 </r>
       <r>    8.5645    0.0000 </r>
       <r>    8.7360    0.0000 </r>
       <r>    8.8658    0.0000 </r>
      </set>
      <set comment="kpoint 35">
       <r>   -6.0468    1.0000 </r>
       <r>   -2.5862    1.0000 </r>
       <r>   -2.5862    1.0000 </r>
       <r>   -2.1379    1.0000 </r>
       <r>   -1.8716    1.0000 </r>
       <r>   -1.2450    1.0000 </r>
       <r>   -1.2450    1.0000 </r>
       <r>    1.6526    1.0000 </r>
       <r>    1.6526    1.0000 </r>
       <r>    2.3633    1.0000 </r>
       <r>    2.6172    1.0000 </r>
       <r>    2.6172    1.0000 </r>
       <r>    3.0098    1.0000 </r>
       <r>    4.8680    1.0000 </r>
       <r>    5.3400    1.0000 </r>
       <r>    5.7007    1.0000 </r>
       <r>    6.5780    0.0000 </r>
       <r>    7.4050    0.0000 </r>
       <r>    8.4305    0.0000 </r>
       <r>    8.4931    0.0000 </r>
       <r>    8.5838    0.0000 </r>
       <r>    9.3025    0.0000 </r>
       <r>    9.3025    0.0000 </r>
       <r>    9.7214    0.0000 </r>
      </set>
      <set comment="kpoint 36">
       <r>   -5.8801    1.0000 </r>
       <r>   -3.0589    1.0000 </r>
       <r>   -2.9265    1.0000 </r>
       <r>   -2.3059    1.0000 </r>
       <r>   -1.6278    1.0000 </r>
       <r>   -1.0284    1.0000 </r>
       <r>   -0.8832    1.0000 </r>
       <r>    1.6687    1.0000 </r>
       <r>    1.7908    1.0000 </r>
       <r>    1.9755    1.0000 </r>
       <r>    2.9537    1.0000 </r>
       <r>    3.0832    1.0000 </r>
       <r>    3.1724    1.0000 </r>
       <r>    4.0571    1.0000 </r>
       <r>    4.9340    1.0000 </r>
       <r>    5.3906    1.0000 </r>
       <r>    6.9652    0.0000 </r>
       <r>    8.1756    0.0000 </r>
       <r>    8.3332    0.0000 </r>
       <r>    8.4047    0.0000 </r>
       <r>    8.8450    0.0000 </r>
       <r>    9.1383    0.0000 </r>
       <r>    9.1878    0.0000 </r>
       <r>    9.3133    0.0000 </r>
      </set>
      <set comment="kpoint 37">
       <r>   -5.5826    1.0000 </r>
       <r>   -3.6966    1.0000 </r>
       <r>   -3.1898    1.0000 </r>
       <r>   -2.5804    1.0000 </r>
       <r>   -1.2804    1.0000 </r>
       <r>   -0.8740    1.0000 </r>
       <r>   -0.3018    1.0000 </r>
       <r>    1.7059    1.0000 </r>
       <r>    1.7657    1.0000 </r>
       <r>    2.1796    1.0000 </r>
       <r>    2.7773    1.0000 </r>
       <r>    3.0347    1.0000 </r>
       <r>    3.6279    1.0000 </r>
       <r>    3.7786    1.0000 </r>
       <r>    4.5895    1.0000 </r>
       <r>    4.7493    1.0000 </r>
       <r>    7.6543    0.0000 </r>
       <r>    7.8188    0.0000 </r>
       <r>    7.9125    0.0000 </r>
       <r>    8.8575    0.0000 </r>
       <r>    9.2235    0.0000 </r>
       <r>    9.3231    0.0000 </r>
       <r>    9.4636    0.0000 </r>
       <r>    9.9744    0.0000 </r>
      </set>
      <set comment="kpoint 38">
       <r>   -5.1596    1.0000 </r>
       <r>   -4.3393    1.0000 </r>
       <r>   -3.3516    1.0000 </r>
       <r>   -2.7679    1.0000 </r>
       <r>   -1.1020    1.0000 </r>
       <r>   -0.7301    1.0000 </r>
       <r>    0.4292    1.0000 </r>
       <r>    1.7104    1.0000 </r>
       <r>    1.8091    1.0000 </r>
       <r>    2.0080    1.0000 </r>
       <r>    2.7465    1.0000 </r>
       <r>    2.7742    1.0000 </r>
       <r>    3.8438    1.0000 </r>
       <r>    3.9828    1.0000 </r>
       <r>    4.1857    1.0000 </r>
       <r>    4.2734    1.0000 </r>
       <r>    7.7349    0.0000 </r>
       <r>    7.8846    0.0000 </r>
       <r>    8.6269    0.0000 </r>
       <r>    8.9410    0.0000 </r>
       <r>    9.2391    0.0000 </r>
       <r>    9.6876    0.0000 </r>
       <r>    9.8440    0.0000 </r>
       <r>   10.2586    0.0000 </r>
      </set>
      <set comment="kpoint 39">
       <r>   -4.9152    1.0000 </r>
       <r>   -4.6210    1.0000 </r>
       <r>   -3.4041    1.0000 </r>
       <r>   -2.8614    1.0000 </r>
       <r>   -1.0775    1.0000 </r>
       <r>   -0.5994    1.0000 </r>
       <r>    1.0443    1.0000 </r>
       <r>    1.2834    1.0000 </r>
       <r>    1.6474    1.0000 </r>
       <r>    1.9569    1.0000 </r>
       <r>    3.1159    1.0000 </r>
       <r>    3.2497    1.0000 </r>
       <r>    3.4348    1.0000 </r>
       <r>    3.4409    1.0000 </r>
       <r>    3.9071    1.0000 </r>
       <r>    4.6981    1.0000 </r>
       <r>    7.6522    0.0000 </r>
       <r>    8.3417    0.0000 </r>
       <r>    8.4860    0.0000 </r>
       <r>    9.0106    0.0000 </r>
       <r>    9.1677    0.0000 </r>
       <r>    9.1862    0.0000 </r>
       <r>    9.4912    0.0000 </r>
       <r>   10.2443    0.0000 </r>
      </set>
      <set comment="kpoint 40">
       <r>   -5.3907    1.0000 </r>
       <r>   -3.9855    1.0000 </r>
       <r>   -3.3443    1.0000 </r>
       <r>   -2.8623    1.0000 </r>
       <r>   -1.1169    1.0000 </r>
       <r>   -0.5549    1.0000 </r>
       <r>    0.1698    1.0000 </r>
       <r>    1.5923    1.0000 </r>
       <r>    2.0769    1.0000 </r>
       <r>    2.2422    1.0000 </r>
       <r>    2.5939    1.0000 </r>
       <r>    3.1287    1.0000 </r>
       <r>    3.4969    1.0000 </r>
       <r>    3.5032    1.0000 </r>
       <r>    4.1890    1.0000 </r>
       <r>    5.1182    1.0000 </r>
       <r>    7.3313    0.0000 </r>
       <r>    7.6852    0.0000 </r>
       <r>    8.0106    0.0000 </r>
       <r>    8.3777    0.0000 </r>
       <r>    8.9539    0.0000 </r>
       <r>    9.3950    0.0000 </r>
       <r>    9.7114    0.0000 </r>
       <r>    9.7204    0.0000 </r>
      </set>
      <set comment="kpoint 41">
       <r>   -5.7488    1.0000 </r>
       <r>   -3.2905    1.0000 </r>
       <r>   -3.1733    1.0000 </r>
       <r>   -2.7774    1.0000 </r>
       <r>   -1.1648    1.0000 </r>
       <r>   -0.7040    1.0000 </r>
       <r>   -0.5985    1.0000 </r>
       <r>    1.6162    1.0000 </r>
       <r>    2.0679    1.0000 </r>
       <r>    2.1904    1.0000 </r>
       <r>    3.0893    1.0000 </r>
       <r>    3.0984    1.0000 </r>
       <r>    3.2784    1.0000 </r>
       <r>    3.3385    1.0000 </r>
       <r>    4.9251    1.0000 </r>
       <r>    5.4050    1.0000 </r>
       <r>    7.0971    0.0000 </r>
[...]
       <r>   -3.8967    1.0000 </r>
       <r>   -3.6000    1.0000 </r>
       <r>   -0.8898    1.0000 </r>
       <r>   -0.5566    1.0000 </r>
       <r>   -0.3049    1.0000 </r>
       <r>    0.6841    1.0000 </r>
       <r>    1.8709    1.0000 </r>
       <r>    2.5829    1.0000 </r>
       <r>    3.6379    1.0000 </r>
       <r>    3.7999    1.0000 </r>
       <r>    4.1583    1.0000 </r>
       <r>    4.2285    1.0000 </r>
       <r>    4.4004    1.0000 </r>
       <r>    4.6564    1.0000 </r>
       <r>    7.6123    0.0000 </r>
       <r>    7.9451    0.0000 </r>
       <r>    8.7268    0.0000 </r>
       <r>    8.7926    0.0000 </r>
       <r>    8.9738    0.0000 </r>
       <r>    9.1988    0.0000 </r>
       <r>    9.2076    0.0000 </r>
       <r>    9.3482    0.0000 </r>
      </set>
      <set comment="kpoint 183">
       <r>   -4.2900    1.0000 </r>
       <r>   -4.2900    1.0000 </r>
       <r>   -3.8805    1.0000 </r>
       <r>   -3.8805    1.0000 </r>
       <r>   -0.3139    1.0000 </r>
       <r>   -0.3139    1.0000 </r>
       <r>    0.1243    1.0000 </r>
       <r>    0.1243    1.0000 </r>
       <r>    2.2135    1.0000 </r>
       <r>    2.2135    1.0000 </r>
       <r>    3.4782    1.0000 </r>
       <r>    3.4782    1.0000 </r>
       <r>    4.1859    1.0000 </r>
       <r>    4.1859    1.0000 </r>
       <r>    4.3572    1.0000 </r>
       <r>    4.3572    1.0000 </r>
       <r>    7.8638    0.0000 </r>
       <r>    7.8638    0.0000 </r>
       <r>    8.6047    0.0000 </r>
       <r>    8.6047    0.0000 </r>
       <r>    9.0182    0.0000 </r>
       <r>    9.0182    0.0000 </r>
       <r>    9.4705    0.0000 </r>
       <r>    9.4705    0.0000 </r>
      </set>
      <set comment="kpoint 184">
       <r>   -4.5102    1.0000 </r>
       <r>   -3.8253    1.0000 </r>
       <r>   -3.8253    1.0000 </r>
       <r>   -3.7095    1.0000 </r>
       <r>   -1.1326    1.0000 </r>
       <r>   -1.1326    1.0000 </r>
       <r>   -0.2564    1.0000 </r>
       <r>    0.7339    1.0000 </r>
       <r>    1.8026    1.0000 </r>
       <r>    2.5301    1.0000 </r>
       <r>    4.1694    1.0000 </r>
       <r>    4.2728    1.0000 </r>
       <r>    4.2728    1.0000 </r>
       <r>    4.4813    1.0000 </r>
       <r>    4.4813    1.0000 </r>
       <r>    4.7063    1.0000 </r>
       <r>    7.5490    0.0000 </r>
       <r>    7.5490    0.0000 </r>
       <r>    7.9142    0.0000 </r>
       <r>    8.4557    0.0000 </r>
       <r>    9.0355    0.0000 </r>
       <r>    9.0355    0.0000 </r>
       <r>    9.2571    0.0000 </r>
       <r>    9.2571    0.0000 </r>
      </set>
      <set comment="kpoint 185">
       <r>   -4.0975    1.0000 </r>
       <r>   -4.0975    1.0000 </r>
       <r>   -3.9080    1.0000 </r>
       <r>   -3.9080    1.0000 </r>
       <r>   -1.0652    1.0000 </r>
       <r>   -1.0652    1.0000 </r>
       <r>    0.2762    1.0000 </r>
       <r>    0.2762    1.0000 </r>
       <r>    2.0526    1.0000 </r>
       <r>    2.0526    1.0000 </r>
       <r>    4.2729    1.0000 </r>
       <r>    4.2729    1.0000 </r>
       <r>    4.5076    1.0000 </r>
       <r>    4.5076    1.0000 </r>
       <r>    4.5362    1.0000 </r>
       <r>    4.5362    1.0000 </r>
       <r>    7.3585    0.0000 </r>
       <r>    7.3585    0.0000 </r>
       <r>    8.4462    0.0000 </r>
       <r>    8.4462    0.0000 </r>
       <r>    9.0737    0.0000 </r>
       <r>    9.0737    0.0000 </r>
       <r>    9.1633    0.0000 </r>
       <r>    9.1633    0.0000 </r>
      </set>
     </set>
    </set>
   </array>
  </eigenvalues>
  <separator name="orbital magnetization" >
   <v name="MAGDIPOLOUT">      0.00000000      0.00000000      0.00000000</v>
  </separator>
  <dos>
   <i name="efermi">      5.83448268 </i>
   <total>
    <array>
     <dimension dim="1">gridpoints</dimension>
     <dimension dim="2">spin</dimension>
     <field>energy</field>
     <field>total</field>
     <field>integrated</field>
     <set>
      <set comment="spin 1">
       <r>    -7.0042     0.0000     0.0000 </r>
       <r>    -6.9419     0.0000     0.0000 </r>
       <r>    -6.8796     0.0000     0.0000 </r>
       <r>    -6.8173     0.0000     0.0000 </r>
       <r>    -6.7551     0.0000     0.0000 </r>
       <r>    -6.6928     0.0000     0.0000 </r>
       <r>    -6.6305     0.0000     0.0000 </r>
       <r>    -6.5682     0.0000     0.0000 </r>
       <r>    -6.5059     0.0000     0.0000 </r>
       <r>    -6.4436     0.0000     0.0000 </r>
       <r>    -6.3813     0.0000     0.0000 </r>
       <r>    -6.3191     0.0000     0.0000 </r>
       <r>    -6.2568     0.0000     0.0000 </r>
       <r>    -6.1945     0.0000     0.0000 </r>
       <r>    -6.1322     0.0495     0.0031 </r>
       <r>    -6.0699     0.4795     0.0330 </r>
       <r>    -6.0076     0.2161     0.0465 </r>
       <r>    -5.9453     0.6552     0.0873 </r>
       <r>    -5.8831     0.6223     0.1261 </r>
       <r>    -5.8208     1.0017     0.1885 </r>
       <r>    -5.7585     0.5029     0.2198 </r>
       <r>    -5.6962     1.1441     0.2911 </r>
       <r>    -5.6339     1.2378     0.3682 </r>
       <r>    -5.5716     0.7589     0.4154 </r>
       <r>    -5.5093     1.1058     0.4843 </r>
       <r>    -5.4471     1.4179     0.5726 </r>
       <r>    -5.3848     1.3382     0.6560 </r>
       <r>    -5.3225     0.7822     0.7047 </r>
       <r>    -5.2602     1.4852     0.7972 </r>
       <r>    -5.1979     1.6824     0.9020 </r>
       <r>    -5.1356     1.2813     0.9818 </r>
       <r>    -5.0733     1.9033     1.1004 </r>
       <r>    -5.0111     1.4574     1.1912 </r>
       <r>    -4.9488     1.7801     1.3022 </r>
       <r>    -4.8865     1.0235     1.3659 </r>
       <r>    -4.8242     1.3129     1.4477 </r>
       <r>    -4.7619     2.6243     1.6112 </r>
       <r>    -4.6996     1.7203     1.7184 </r>
       <r>    -4.6373     2.1877     1.8547 </r>
       <r>    -4.5751     2.2257     1.9934 </r>
       <r>    -4.5128     1.6925     2.0988 </r>
       <r>    -4.4505     2.1464     2.2326 </r>
       <r>    -4.3882     2.1077     2.3639 </r>
       <r>    -4.3259     2.2443     2.5038 </r>
       <r>    -4.2636     1.2862     2.5839 </r>
       <r>    -4.2013     2.8292     2.7601 </r>
       <r>    -4.1391     2.6965     2.9281 </r>
       <r>    -4.0768     2.8693     3.1068 </r>
       <r>    -4.0145     3.0866     3.2991 </r>
       <r>    -3.9522     3.1613     3.4960 </r>
       <r>    -3.8899     2.4052     3.6459 </r>
       <r>    -3.8276     3.3801     3.8566 </r>
       <r>    -3.7653     3.0760     4.0483 </r>
       <r>    -3.7030     2.8766     4.2275 </r>
       <r>    -3.6408     3.6763     4.4565 </r>
       <r>    -3.5785     4.3928     4.7301 </r>
       <r>    -3.5162     3.5059     4.9486 </r>
       <r>    -3.4539     1.7733     5.0591 </r>
       <r>    -3.3916     3.0890     5.2516 </r>
       <r>    -3.3293     3.1779     5.4495 </r>
       <r>    -3.2670     4.6598     5.7398 </r>
       <r>    -3.2048     3.0188     5.9279 </r>
       <r>    -3.1425     2.1667     6.0629 </r>
       <r>    -3.0802     2.0126     6.1882 </r>
       <r>    -3.0179     2.3757     6.3363 </r>
       <r>    -2.9556     0.8549     6.3895 </r>
       <r>    -2.8933     2.2125     6.5273 </r>
       <r>    -2.8310     1.9815     6.6508 </r>
       <r>    -2.7688     3.7337     6.8834 </r>
       <r>    -2.7065     3.4062     7.0957 </r>
       <r>    -2.6442     2.0464     7.2232 </r>
       <r>    -2.5819     2.3110     7.3671 </r>
       <r>    -2.5196     1.4273     7.4560 </r>
       <r>    -2.4573     1.5380     7.5518 </r>
       <r>    -2.3950     0.7551     7.5989 </r>
       <r>    -2.3328     1.2936     7.6795 </r>
       <r>    -2.2705     0.7301     7.7250 </r>
       <r>    -2.2082     0.6033     7.7626 </r>
       <r>    -2.1459     0.8521     7.8157 </r>
       <r>    -2.0836     0.7236     7.8608 </r>
       <r>    -2.0213     1.3028     7.9419 </r>
       <r>    -1.9590     1.3569     8.0264 </r>
       <r>    -1.8968     0.8164     8.0773 </r>
       <r>    -1.8345     0.7671     8.1250 </r>
       <r>    -1.7722     0.7305     8.1705 </r>
       <r>    -1.7099     0.4987     8.2016 </r>
       <r>    -1.6476     0.6498     8.2421 </r>
       <r>    -1.5853     0.7835     8.2909 </r>
       <r>    -1.5230     0.7362     8.3368 </r>
       <r>    -1.4608     1.1023     8.4055 </r>
       <r>    -1.3985     0.7093     8.4497 </r>
       <r>    -1.3362     0.7655     8.4974 </r>
       <r>    -1.2739     1.9329     8.6178 </r>
       <r>    -1.2116     2.6798     8.7847 </r>
       <r>    -1.1493     7.5610     9.2556 </r>
       <r>    -1.0870     2.8900     9.4357 </r>
       <r>    -1.0248     5.4021     9.7722 </r>
       <r>    -0.9625     6.3539    10.1681 </r>
       <r>    -0.9002     4.6084    10.4552 </r>
       <r>    -0.8379     4.1770    10.7155 </r>
       <r>    -0.7756     3.2519    10.9183 </r>
       <r>    -0.7133     2.4720    11.0723 </r>
       <r>    -0.6510     3.2060    11.2720 </r>
       <r>    -0.5888     3.4626    11.4877 </r>
       <r>    -0.5265     3.5634    11.7097 </r>
       <r>    -0.4642     2.3434    11.8557 </r>
       <r>    -0.4019     2.5012    12.0115 </r>
       <r>    -0.3396     3.1084    12.2051 </r>
       <r>    -0.2773     2.0894    12.3353 </r>
       <r>    -0.2150     2.7994    12.5097 </r>
       <r>    -0.1528     1.6922    12.6151 </r>
       <r>    -0.0905     1.8056    12.7275 </r>
       <r>    -0.0282     1.8227    12.8411 </r>
       <r>     0.0341     1.3166    12.9231 </r>
       <r>     0.0964     1.7614    13.0329 </r>
       <r>     0.1587     2.3048    13.1764 </r>
       <r>     0.2210     2.0239    13.3025 </r>
       <r>     0.2832     1.1569    13.3746 </r>
       <r>     0.3455     1.1757    13.4478 </r>
       <r>     0.4078     1.0400    13.5126 </r>
       <r>     0.4701     1.8621    13.6286 </r>
       <r>     0.5324     1.3536    13.7130 </r>
       <r>     0.5947     1.1089    13.7820 </r>
       <r>     0.6570     1.3645    13.8670 </r>
       <r>     0.7193     2.5133    14.0236 </r>
       <r>     0.7815     1.1537    14.0955 </r>
       <r>     0.8438     0.8632    14.1493 </r>
       <r>     0.9061     1.0740    14.2162 </r>
       <r>     0.9684     0.5757    14.2520 </r>
       <r>     1.0307     1.4944    14.3451 </r>
       <r>     1.0930     1.1368    14.4159 </r>
       <r>     1.1553     0.6016    14.4534 </r>
       <r>     1.2175     0.6338    14.4929 </r>
       <r>     1.2798     0.8321    14.5447 </r>
       <r>     1.3421     1.0202    14.6083 </r>
       <r>     1.4044     1.5860    14.7071 </r>
       <r>     1.4667     1.6819    14.8119 </r>
       <r>     1.5290     2.8741    14.9910 </r>
       <r>     1.5913     2.8150    15.1663 </r>
       <r>     1.6535     6.2471    15.5555 </r>
       <r>     1.7158     5.1276    15.8749 </r>
       <r>     1.7781     4.8573    16.1775 </r>
       <r>     1.8404     4.2541    16.4426 </r>
       <r>     1.9027     3.3887    16.6537 </r>
       <r>     1.9650     3.8073    16.8909 </r>
       <r>     2.0273     3.2952    17.0963 </r>
       <r>     2.0895     6.6860    17.5129 </r>
       <r>     2.1518     4.2303    17.7764 </r>
       <r>     2.2141     3.1602    17.9732 </r>
       <r>     2.2764     3.2465    18.1755 </r>
       <r>     2.3387     4.0019    18.4248 </r>
       <r>     2.4010     4.1175    18.6813 </r>
       <r>     2.4633     5.6983    19.0363 </r>
       <r>     2.5255     4.7467    19.3320 </r>
       <r>     2.5878     4.5799    19.6173 </r>
       <r>     2.6501     3.2977    19.8227 </r>
       <r>     2.7124     4.4696    20.1012 </r>
       <r>     2.7747     6.4165    20.5009 </r>
       <r>     2.8370     5.3410    20.8336 </r>
       <r>     2.8993     3.8142    21.0711 </r>
       <r>     2.9615     6.6682    21.4866 </r>
       <r>     3.0238     6.3155    21.8800 </r>
       <r>     3.0861     6.0967    22.2599 </r>
       <r>     3.1484     6.2247    22.6479 </r>
       <r>     3.2107     5.1741    22.9703 </r>
       <r>     3.2730     5.8568    23.3352 </r>
       <r>     3.3353     5.3685    23.6697 </r>
       <r>     3.3975     5.8243    24.0326 </r>
       <r>     3.4598     6.1168    24.4136 </r>
       <r>     3.5221     8.1096    24.9189 </r>
       <r>     3.5844     3.2690    25.1226 </r>
       <r>     3.6467     3.8630    25.3633 </r>
       <r>     3.7090     4.5326    25.6457 </r>
       <r>     3.7713     8.2610    26.1603 </r>
       <r>     3.8335     5.2493    26.4874 </r>
       <r>     3.8958     4.7764    26.7849 </r>
       <r>     3.9581     5.7358    27.1423 </r>
       <r>     4.0204     4.0124    27.3922 </r>
       <r>     4.0827     4.8120    27.6920 </r>
       <r>     4.1450     2.8656    27.8705 </r>
       <r>     4.2073     6.4755    28.2739 </r>
       <r>     4.2695     4.7771    28.5715 </r>
       <r>     4.3318     5.4898    28.9136 </r>
       <r>     4.3941     5.1208    29.2325 </r>
       <r>     4.4564     5.3027    29.5628 </r>
       <r>     4.5187     3.3440    29.7712 </r>
       <r>     4.5810     3.0891    29.9636 </r>
       <r>     4.6433     3.9043    30.2068 </r>
       <r>     4.7056     3.9647    30.4539 </r>
       <r>     4.7678     3.6413    30.6807 </r>
       <r>     4.8301     2.2632    30.8217 </r>
       <r>     4.8924     1.6053    30.9217 </r>
       <r>     4.9547     2.1806    31.0576 </r>
       <r>     5.0170     2.6460    31.2225 </r>
       <r>     5.0793     1.4479    31.3128 </r>
       <r>     5.1416     2.3169    31.4571 </r>
       <r>     5.2038     2.2043    31.5944 </r>
       <r>     5.2661     0.6777    31.6366 </r>
       <r>     5.3284     0.2365    31.6514 </r>
       <r>     5.3907     1.1928    31.7257 </r>
       <r>     5.4530     1.3983    31.8128 </r>
       <r>     5.5153     1.2898    31.8931 </r>
       <r>     5.5776     0.9395    31.9517 </r>
       <r>     5.6398     0.0331    31.9537 </r>
       <r>     5.7021     0.4927    31.9844 </r>
       <r>     5.7644     0.2407    31.9995 </r>
       <r>     5.8267     0.0085    32.0000 </r>
       <r>     5.8890     0.0000    32.0000 </r>
       <r>     5.9513     0.0000    32.0000 </r>
       <r>     6.0136     0.0000    32.0000 </r>
       <r>     6.0758     0.0000    32.0000 </r>
       <r>     6.1381     0.0000    32.0000 </r>
       <r>     6.2004     0.0000    32.0000 </r>
       <r>     6.2627     0.0000    32.0000 </r>
       <r>     6.3250     0.0002    32.0000 </r>
       <r>     6.3873     0.3745    32.0233 </r>
       <r>     6.4496     0.2195    32.0370 </r>
       <r>     6.5118     0.4954    32.0679 </r>
       <r>     6.5741     0.3493    32.0897 </r>
       <r>     6.6364     1.2941    32.1703 </r>
       <r>     6.6987     2.7371    32.3408 </r>
       <r>     6.7610     0.5731    32.3765 </r>
       <r>     6.8233     1.5553    32.4734 </r>
       <r>     6.8856     1.3653    32.5584 </r>
       <r>     6.9478     2.1805    32.6942 </r>
       <r>     7.0101     1.9475    32.8155 </r>
       <r>     7.0724     1.9618    32.9377 </r>
       <r>     7.1347     2.6701    33.1041 </r>
       <r>     7.1970     2.7790    33.2772 </r>
       <r>     7.2593     0.8863    33.3324 </r>
       <r>     7.3216     2.2684    33.4737 </r>
       <r>     7.3838     3.5889    33.6973 </r>
       <r>     7.4461     4.6103    33.9845 </r>
       <r>     7.5084     3.4639    34.2003 </r>
       <r>     7.5707     4.1083    34.4564 </r>
       <r>     7.6330     3.4792    34.6731 </r>
       <r>     7.6953     3.2952    34.8784 </r>
       <r>     7.7576     3.9780    35.1262 </r>
       <r>     7.8198     5.9921    35.4995 </r>
       <r>     7.8821     6.0076    35.8738 </r>
       <r>     7.9444     5.0712    36.1898 </r>
       <r>     8.0067     6.6144    36.6018 </r>
       <r>     8.0690     5.4514    36.9414 </r>
       <r>     8.1313     7.3857    37.4015 </r>
       <r>     8.1936     4.8898    37.7061 </r>
       <r>     8.2558     6.5681    38.1153 </r>
       <r>     8.3181     5.7787    38.4752 </r>
       <r>     8.3804     4.6295    38.7637 </r>
       <r>     8.4427     6.5567    39.1722 </r>
       <r>     8.5050     4.7071    39.4654 </r>
       <r>     8.5673     5.6048    39.8146 </r>
       <r>     8.6296     4.4748    40.0934 </r>
       <r>     8.6918     3.5712    40.3158 </r>
       <r>     8.7541     4.3519    40.5869 </r>
       <r>     8.8164     4.6803    40.8785 </r>
       <r>     8.8787     5.1688    41.2005 </r>
       <r>     8.9410     4.0616    41.4535 </r>
       <r>     9.0033     7.6052    41.9273 </r>
       <r>     9.0656     8.0593    42.4293 </r>
       <r>     9.1279     7.3501    42.8872 </r>
       <r>     9.1901     7.3072    43.3425 </r>
       <r>     9.2524     8.4666    43.8700 </r>
       <r>     9.3147     7.1719    44.3169 </r>
       <r>     9.3770     5.2868    44.6462 </r>
       <r>     9.4393     4.7257    44.9406 </r>
       <r>     9.5016     6.3996    45.3393 </r>
       <r>     9.5639     6.7671    45.7608 </r>
       <r>     9.6261     7.0470    46.1999 </r>
       <r>     9.6884     3.8059    46.4371 </r>
       <r>     9.7507     3.6142    46.6622 </r>
       <r>     9.8130     3.7788    46.8976 </r>
       <r>     9.8753     2.8840    47.0773 </r>
       <r>     9.9376     2.9600    47.2617 </r>
       <r>     9.9999     2.2521    47.4019 </r>
       <r>    10.0621     1.4363    47.4914 </r>
       <r>    10.1244     1.2917    47.5719 </r>
       <r>    10.1867     1.0650    47.6382 </r>
       <r>    10.2490     0.9003    47.6943 </r>
       <r>    10.3113     1.4388    47.7840 </r>
       <r>    10.3736     0.3840    47.8079 </r>
       <r>    10.4359     1.0635    47.8741 </r>
       <r>    10.4981     0.7024    47.9179 </r>
       <r>    10.5604     0.5399    47.9516 </r>
       <r>    10.6227     0.5787    47.9877 </r>
       <r>    10.6850     0.0000    47.9877 </r>
       <r>    10.7473     0.0000    47.9877 </r>
       <r>    10.8096     0.0001    47.9877 </r>
       <r>    10.8719     0.1981    48.0000 </r>
       <r>    10.9341     0.0000    48.0000 </r>
       <r>    10.9964     0.0000    48.0000 </r>
       <r>    11.0587     0.0000    48.0000 </r>
       <r>    11.1210     0.0000    48.0000 </r>
       <r>    11.1833     0.0000    48.0000 </r>
       <r>    11.2456     0.0000    48.0000 </r>
       <r>    11.3079     0.0000    48.0000 </r>
       <r>    11.3701     0.0000    48.0000 </r>
       <r>    11.4324     0.0000    48.0000 </r>
       <r>    11.4947     0.0000    48.0000 </r>
       <r>    11.5570     0.0000    48.0000 </r>
       <r>    11.6193     0.0000    48.0000 </r>
       <r>    11.6816     0.0000    48.0000 </r>
      </set>
     </set>
    </array>
   </total>
  </dos>
 </calculation>
 <structure name="finalpos" >
  <crystal>
   <varray name="basis" >
    <v>      -0.00000000       0.00000000       5.44370237 </v>
    <v>      -5.44370237       0.00000000       0.00000000 </v>
    <v>      -2.72185119      -5.44370237       2.72185119 </v>
   </varray>
   <i name="volume">    161.31810740 </i>
   <varray name="rec_basis" >
    <v>       0.00000000       0.09184925       0.18369851 </v>
    <v>      -0.18369851       0.09184925      -0.00000000 </v>
    <v>       0.00000000      -0.18369851       0.00000000 </v>
   </varray>
  </crystal>
  <varray name="positions" >
   <v>       0.00000000       0.00000000       0.00000000 </v>
   <v>       0.75000000       0.25000000       0.50000000 </v>
   <v>       0.50000000       0.50000000       0.00000000 </v>
   <v>       0.25000000       0.75000000       0.50000000 </v>
   <v>       0.37500000       0.87500000       0.75000000 </v>
   <v>       0.12500000       0.12500000       0.25000000 </v>
   <v>       0.87500000       0.37500000       0.75000000 </v>
   <v>       0.62500000       0.62500000       0.25000000 </v>
  </varray>
 </structure>
</modeling>
