<?xml version="1.0" encoding="ISO-8859-1"?>
<modeling>
 <generator>
  <i name="program" type="string">vasp </i>
  <i name="version" type="string">6.4.3  </i>
  <i name="subversion" type="string">19Mar24 (build Jun 20 2024 15:56:09) complex                          parallel </i>
  <i name="platform" type="string">LinuxNV_CrayMPICH </i>
  <i name="date" type="string">2025 01 07 </i>
  <i name="time" type="string">18:40:07 </i>
 </generator>
 <incar>
  <i type="string" name="PREC">Accurate</i>
  <i type="int" name="IBRION">    -1</i>
  <i name="EDIFF">      0.00000001</i>
  <i type="int" name="NSW">     0</i>
  <i name="ENCUT">    500.00000000</i>
  <i type="logical" name="LREAL"> F  </i>
  <i type="int" name="ISMEAR">     0</i>
  <i name="SIGMA">      0.01000000</i>
  <i type="logical" name="LWAVE"> F  </i>
  <i type="logical" name="LCHARG"> F  </i>
 </incar>
 <primitive_cell>
  <structure name="primitive_cell" >
   <crystal>
    <varray name="basis" >
     <v>       4.14369834       4.14369834       8.28739668 </v>
     <v>       4.14369834      -4.14369834       0.00000000 </v>
     <v>       0.00000000       4.14369834      -4.14369834 </v>
    </varray>
    <i name="volume">    284.59311253 </i>
    <varray name="rec_basis" >
     <v>       0.06033258       0.06033258       0.06033258 </v>
     <v>       0.18099773      -0.06033258      -0.06033258 </v>
     <v>       0.12066515       0.12066515      -0.12066515 </v>
    </varray>
   </crystal>
   <varray name="positions" >
    <v>       0.00000000       0.00000000       0.00000000 </v>
    <v>       0.25000000       0.75000000       0.50000000 </v>
    <v>       0.50000000       0.50000000       1.00000000 </v>
    <v>       0.75000000       0.25000000       0.50000000 </v>
    <v>       0.37598523       0.12500000       0.25000000 </v>
    <v>       0.62500000       0.87500000       0.75000000 </v>
    <v>       0.87500000       0.62500000       0.25000000 </v>
    <v>       0.12500000       0.37500000       0.75000000 </v>
   </varray>
  </structure>
  <varray name="primitive_index" >
   <v type="int" >        1 </v>
   <v type="int" >        2 </v>
   <v type="int" >        3 </v>
   <v type="int" >        4 </v>
   <v type="int" >        5 </v>
   <v type="int" >        6 </v>
   <v type="int" >        7 </v>
   <v type="int" >        8 </v>
  </varray>
 </primitive_cell>
 <kpoints>
  <generation param="Gamma">
   <v type="int" name="divisions">       4        8        9 </v>
   <v name="usershift">      0.00000000       0.00000000       0.00000000 </v>
   <v name="genvec1">      0.25000000       0.00000000      -0.00000000 </v>
   <v name="genvec2">     -0.00000000       0.12500000      -0.00000000 </v>
   <v name="genvec3">     -0.00000000       0.00000000       0.11111111 </v>
   <v name="shift">      0.00000000       0.00000000       0.00000000 </v>
  </generation>
  <varray name="kpointlist" >
   <v>       0.00000000       0.00000000       0.00000000 </v>
   <v>       0.25000000       0.00000000       0.00000000 </v>
   <v>       0.50000000       0.00000000       0.00000000 </v>
   <v>       0.00000000       0.12500000       0.00000000 </v>
   <v>       0.25000000       0.12500000       0.00000000 </v>
   <v>       0.50000000       0.12500000       0.00000000 </v>
   <v>      -0.25000000       0.12500000       0.00000000 </v>
   <v>       0.00000000       0.25000000       0.00000000 </v>
   <v>       0.25000000       0.25000000       0.00000000 </v>
   <v>       0.50000000       0.25000000       0.00000000 </v>
   <v>      -0.25000000       0.25000000       0.00000000 </v>
   <v>       0.00000000       0.37500000       0.00000000 </v>
   <v>       0.25000000       0.37500000       0.00000000 </v>
   <v>       0.50000000       0.37500000       0.00000000 </v>
   <v>      -0.25000000       0.37500000       0.00000000 </v>
   <v>       0.00000000       0.50000000       0.00000000 </v>
   <v>       0.25000000       0.50000000       0.00000000 </v>
   <v>       0.50000000       0.50000000       0.00000000 </v>
   <v>       0.00000000       0.00000000       0.11111111 </v>
   <v>       0.25000000       0.00000000       0.11111111 </v>
   <v>       0.50000000       0.00000000       0.11111111 </v>
   <v>      -0.25000000       0.00000000       0.11111111 </v>
   <v>       0.00000000       0.12500000       0.11111111 </v>
   <v>       0.25000000       0.12500000       0.11111111 </v>
   <v>       0.50000000       0.12500000       0.11111111 </v>
   <v>      -0.25000000       0.12500000       0.11111111 </v>
   <v>       0.00000000       0.25000000       0.11111111 </v>
   <v>       0.25000000       0.25000000       0.11111111 </v>
   <v>       0.50000000       0.25000000       0.11111111 </v>
   <v>      -0.25000000       0.25000000       0.11111111 </v>
   <v>       0.00000000       0.37500000       0.11111111 </v>
   <v>       0.25000000       0.37500000       0.11111111 </v>
   <v>       0.50000000       0.37500000       0.11111111 </v>
   <v>      -0.25000000       0.37500000       0.11111111 </v>
   <v>       0.00000000       0.50000000       0.11111111 </v>
   <v>       0.25000000       0.50000000       0.11111111 </v>
   <v>       0.50000000       0.50000000       0.11111111 </v>
   <v>      -0.25000000       0.50000000       0.11111111 </v>
   <v>       0.00000000      -0.37500000       0.11111111 </v>
   <v>       0.25000000      -0.37500000       0.11111111 </v>
   <v>       0.50000000      -0.37500000       0.11111111 </v>
   <v>      -0.25000000      -0.37500000       0.11111111 </v>
   <v>       0.00000000      -0.25000000       0.11111111 </v>
   <v>       0.25000000      -0.25000000       0.11111111 </v>
   <v>       0.50000000      -0.25000000       0.11111111 </v>
   <v>      -0.25000000      -0.25000000       0.11111111 </v>
   <v>       0.00000000      -0.12500000       0.11111111 </v>
   <v>       0.25000000      -0.12500000       0.11111111 </v>
   <v>       0.50000000      -0.12500000       0.11111111 </v>
   <v>      -0.25000000      -0.12500000       0.11111111 </v>
   <v>       0.00000000       0.00000000       0.22222222 </v>
   <v>       0.25000000       0.00000000       0.22222222 </v>
   <v>       0.50000000       0.00000000       0.22222222 </v>
   <v>      -0.25000000       0.00000000       0.22222222 </v>
   <v>       0.00000000       0.12500000       0.22222222 </v>
   <v>       0.25000000       0.12500000       0.22222222 </v>
   <v>       0.50000000       0.12500000       0.22222222 </v>
   <v>      -0.25000000       0.12500000       0.22222222 </v>
   <v>       0.00000000       0.25000000       0.22222222 </v>
   <v>       0.25000000       0.25000000       0.22222222 </v>
   <v>       0.50000000       0.25000000       0.22222222 </v>
   <v>      -0.25000000       0.25000000       0.22222222 </v>
   <v>       0.00000000       0.37500000       0.22222222 </v>
   <v>       0.25000000       0.37500000       0.22222222 </v>
   <v>       0.50000000       0.37500000       0.22222222 </v>
   <v>      -0.25000000       0.37500000       0.22222222 </v>
   <v>       0.00000000       0.50000000       0.22222222 </v>
   <v>       0.25000000       0.50000000       0.22222222 </v>
   <v>       0.50000000       0.50000000       0.22222222 </v>
   <v>      -0.25000000       0.50000000       0.22222222 </v>
   <v>       0.00000000      -0.37500000       0.22222222 </v>
   <v>       0.25000000      -0.37500000       0.22222222 </v>
   <v>       0.50000000      -0.37500000       0.22222222 </v>
   <v>      -0.25000000      -0.37500000       0.22222222 </v>
   <v>       0.00000000      -0.25000000       0.22222222 </v>
   <v>       0.25000000      -0.25000000       0.22222222 </v>
   <v>       0.50000000      -0.25000000       0.22222222 </v>
   <v>      -0.25000000      -0.25000000       0.22222222 </v>
   <v>       0.00000000      -0.12500000       0.22222222 </v>
   <v>       0.25000000      -0.12500000       0.22222222 </v>
   <v>       0.50000000      -0.12500000       0.22222222 </v>
   <v>      -0.25000000      -0.12500000       0.22222222 </v>
   <v>       0.00000000       0.00000000       0.33333333 </v>
   <v>       0.25000000       0.00000000       0.33333333 </v>
   <v>       0.50000000       0.00000000       0.33333333 </v>
   <v>      -0.25000000       0.00000000       0.33333333 </v>
   <v>       0.00000000       0.12500000       0.33333333 </v>
   <v>       0.25000000       0.12500000       0.33333333 </v>
   <v>       0.50000000       0.12500000       0.33333333 </v>
   <v>      -0.25000000       0.12500000       0.33333333 </v>
   <v>       0.00000000       0.25000000       0.33333333 </v>
   <v>       0.25000000       0.25000000       0.33333333 </v>
   <v>       0.50000000       0.25000000       0.33333333 </v>
   <v>      -0.25000000       0.25000000       0.33333333 </v>
   <v>       0.00000000       0.37500000       0.33333333 </v>
   <v>       0.25000000       0.37500000       0.33333333 </v>
   <v>       0.50000000       0.37500000       0.33333333 </v>
   <v>      -0.25000000       0.37500000       0.33333333 </v>
   <v>       0.00000000       0.50000000       0.33333333 </v>
   <v>       0.25000000       0.50000000       0.33333333 </v>
   <v>       0.50000000       0.50000000       0.33333333 </v>
   <v>      -0.25000000       0.50000000       0.33333333 </v>
   <v>       0.00000000      -0.37500000       0.33333333 </v>
   <v>       0.25000000      -0.37500000       0.33333333 </v>
   <v>       0.50000000      -0.37500000       0.33333333 </v>
   <v>      -0.25000000      -0.37500000       0.33333333 </v>
   <v>       0.00000000      -0.25000000       0.33333333 </v>
   <v>       0.25000000      -0.25000000       0.33333333 </v>
   <v>       0.50000000      -0.25000000       0.33333333 </v>
   <v>      -0.25000000      -0.25000000       0.33333333 </v>
   <v>       0.00000000      -0.12500000       0.33333333 </v>
   <v>       0.25000000      -0.12500000       0.33333333 </v>
   <v>       0.50000000      -0.12500000       0.33333333 </v>
   <v>      -0.25000000      -0.12500000       0.33333333 </v>
   <v>       0.00000000       0.00000000       0.44444444 </v>
   <v>       0.25000000       0.00000000       0.44444444 </v>
   <v>       0.50000000       0.00000000       0.44444444 </v>
   <v>      -0.25000000       0.00000000       0.44444444 </v>
   <v>       0.00000000       0.12500000       0.44444444 </v>
   <v>       0.25000000       0.12500000       0.44444444 </v>
   <v>       0.50000000       0.12500000       0.44444444 </v>
   <v>      -0.25000000       0.12500000       0.44444444 </v>
   <v>       0.00000000       0.25000000       0.44444444 </v>
   <v>       0.25000000       0.25000000       0.44444444 </v>
   <v>       0.50000000       0.25000000       0.44444444 </v>
   <v>      -0.25000000       0.25000000       0.44444444 </v>
   <v>       0.00000000       0.37500000       0.44444444 </v>
   <v>       0.25000000       0.37500000       0.44444444 </v>
   <v>       0.50000000       0.37500000       0.44444444 </v>
   <v>      -0.25000000       0.37500000       0.44444444 </v>
   <v>       0.00000000       0.50000000       0.44444444 </v>
   <v>       0.25000000       0.50000000       0.44444444 </v>
   <v>       0.50000000       0.50000000       0.44444444 </v>
   <v>      -0.25000000       0.50000000       0.44444444 </v>
   <v>       0.00000000      -0.37500000       0.44444444 </v>
   <v>       0.25000000      -0.37500000       0.44444444 </v>
   <v>       0.50000000      -0.37500000       0.44444444 </v>
   <v>      -0.25000000      -0.37500000       0.44444444 </v>
   <v>       0.00000000      -0.25000000       0.44444444 </v>
   <v>       0.25000000      -0.25000000       0.44444444 </v>
   <v>       0.50000000      -0.25000000       0.44444444 </v>
   <v>      -0.25000000      -0.25000000       0.44444444 </v>
   <v>       0.00000000      -0.12500000       0.44444444 </v>
   <v>       0.25000000      -0.12500000       0.44444444 </v>
   <v>       0.50000000      -0.12500000       0.44444444 </v>
   <v>      -0.25000000      -0.12500000       0.44444444 </v>
  </varray>
  <varray name="weights" >
   <v>       0.00347222 </v>
   <v>       0.00694444 </v>
   <v>       0.00347222 </v>
   <v>       0.00694444 </v>
   <v>       0.00694444 </v>
   <v>       0.00694444 </v>
   <v>       0.00694444 </v>
   <v>       0.00694444 </v>
   <v>       0.00694444 </v>
   <v>       0.00694444 </v>
   <v>       0.00694444 </v>
   <v>       0.00694444 </v>
   <v>       0.00694444 </v>
   <v>       0.00694444 </v>
   <v>       0.00694444 </v>
   <v>       0.00347222 </v>
   <v>       0.00694444 </v>
   <v>       0.00347222 </v>
   <v>       0.00694444 </v>
   <v>       0.00694444 </v>
   <v>       0.00694444 </v>
   <v>       0.00694444 </v>
   <v>       0.00694444 </v>
   <v>       0.00694444 </v>
   <v>       0.00694444 </v>
   <v>       0.00694444 </v>
   <v>       0.00694444 </v>
   <v>       0.00694444 </v>
   <v>       0.00694444 </v>
   <v>       0.00694444 </v>
   <v>       0.00694444 </v>
   <v>       0.00694444 </v>
   <v>       0.00694444 </v>
   <v>       0.00694444 </v>
   <v>       0.00694444 </v>
   <v>       0.00694444 </v>
   <v>       0.00694444 </v>
   <v>       0.00694444 </v>
   <v>       0.00694444 </v>
   <v>       0.00694444 </v>
   <v>       0.00694444 </v>
   <v>       0.00694444 </v>
   <v>       0.00694444 </v>
   <v>       0.00694444 </v>
   <v>       0.00694444 </v>
   <v>       0.00694444 </v>
   <v>       0.00694444 </v>
   <v>       0.00694444 </v>
   <v>       0.00694444 </v>
   <v>       0.00694444 </v>
   <v>       0.00694444 </v>
   <v>       0.00694444 </v>
   <v>       0.00694444 </v>
   <v>       0.00694444 </v>
   <v>       0.00694444 </v>
   <v>       0.00694444 </v>
   <v>       0.00694444 </v>
   <v>       0.00694444 </v>
   <v>       0.00694444 </v>
   <v>       0.00694444 </v>
   <v>       0.00694444 </v>
   <v>       0.00694444 </v>
   <v>       0.00694444 </v>
   <v>       0.00694444 </v>
   <v>       0.00694444 </v>
   <v>       0.00694444 </v>
   <v>       0.00694444 </v>
   <v>       0.00694444 </v>
   <v>       0.00694444 </v>
   <v>       0.00694444 </v>
   <v>       0.00694444 </v>
   <v>       0.00694444 </v>
   <v>       0.00694444 </v>
   <v>       0.00694444 </v>
   <v>       0.00694444 </v>
   <v>       0.00694444 </v>
   <v>       0.00694444 </v>
   <v>       0.00694444 </v>
   <v>       0.00694444 </v>
   <v>       0.00694444 </v>
   <v>       0.00694444 </v>
   <v>       0.00694444 </v>
   <v>       0.00694444 </v>
   <v>       0.00694444 </v>
   <v>       0.00694444 </v>
   <v>       0.00694444 </v>
   <v>       0.00694444 </v>
   <v>       0.00694444 </v>
   <v>       0.00694444 </v>
   <v>       0.00694444 </v>
   <v>       0.00694444 </v>
   <v>       0.00694444 </v>
   <v>       0.00694444 </v>
   <v>       0.00694444 </v>
   <v>       0.00694444 </v>
   <v>       0.00694444 </v>
   <v>       0.00694444 </v>
   <v>       0.00694444 </v>
   <v>       0.00694444 </v>
   <v>       0.00694444 </v>
   <v>       0.00694444 </v>
   <v>       0.00694444 </v>
   <v>       0.00694444 </v>
   <v>       0.00694444 </v>
   <v>       0.00694444 </v>
   <v>       0.00694444 </v>
   <v>       0.00694444 </v>
   <v>       0.00694444 </v>
   <v>       0.00694444 </v>
   <v>       0.00694444 </v>
   <v>       0.00694444 </v>
   <v>       0.00694444 </v>
   <v>       0.00694444 </v>
   <v>       0.00694444 </v>
   <v>       0.00694444 </v>
   <v>       0.00694444 </v>
   <v>       0.00694444 </v>
   <v>       0.00694444 </v>
   <v>       0.00694444 </v>
   <v>       0.00694444 </v>
   <v>       0.00694444 </v>
   <v>       0.00694444 </v>
   <v>       0.00694444 </v>
   <v>       0.00694444 </v>
   <v>       0.00694444 </v>
   <v>       0.00694444 </v>
   <v>       0.00694444 </v>
   <v>       0.00694444 </v>
   <v>       0.00694444 </v>
   <v>       0.00694444 </v>
   <v>       0.00694444 </v>
   <v>       0.00694444 </v>
   <v>       0.00694444 </v>
   <v>       0.00694444 </v>
   <v>       0.00694444 </v>
   <v>       0.00694444 </v>
   <v>       0.00694444 </v>
   <v>       0.00694444 </v>
   <v>       0.00694444 </v>
   <v>       0.00694444 </v>
   <v>       0.00694444 </v>
   <v>       0.00694444 </v>
   <v>       0.00694444 </v>
   <v>       0.00694444 </v>
   <v>       0.00694444 </v>
   <v>       0.00694444 </v>
  </varray>
 </kpoints>
 <parameters>
  <separator name="general" >
   <i type="string" name="SYSTEM">unknown system</i>
   <i type="logical" name="LCOMPAT"> F  </i>
  </separator>
  <separator name="electronic" >
   <i type="string" name="PREC">accura</i>
   <i name="ENMAX">    500.00000000</i>
   <i name="ENAUG">    407.93300000</i>
   <i name="EDIFF">      0.00000001</i>
   <i type="int" name="IALGO">    38</i>
   <i type="int" name="IWAVPR">    10</i>
   <i type="int" name="NBANDS">    40</i>
   <i type="int" name="NBANDSLOW">    -1</i>
   <i type="int" name="NBANDSHIGH">    -1</i>
   <i name="NELECT">     64.00000000</i>
   <i type="int" name="TURBO">     0</i>
   <i type="int" name="IRESTART">     0</i>
   <i type="int" name="NREBOOT">     0</i>
   <i type="int" name="NMIN">     0</i>
   <i name="EREF">      0.00000000</i>
   <separator name="electronic smearing" >
    <i type="int" name="ISMEAR">     0</i>
    <i name="SIGMA">      0.01000000</i>
    <i name="KSPACING">      0.50000000</i>
    <i type="logical" name="KGAMMA"> T  </i>
    <i type="logical" name="KBLOWUP"> F  </i>
   </separator>
   <separator name="electronic projectors" >
    <i type="logical" name="LREAL"> F  </i>
    <v name="ROPT">      0.00000000      0.00000000</v>
    <i type="int" name="LMAXPAW">  -100</i>
    <i type="int" name="LMAXMIX">     2</i>
    <i type="logical" name="NLSPLINE"> F  </i>
   </separator>
   <separator name="electronic startup" >
    <i type="int" name="ISTART">     0</i>
    <i type="int" name="ICHARG">     2</i>
    <i type="int" name="INIWAV">     1</i>
   </separator>
   <separator name="electronic spin" >
    <i type="int" name="ISPIN">     1</i>
    <i type="logical" name="LNONCOLLINEAR"> F  </i>
    <v name="MAGMOM">      1.00000000      1.00000000      1.00000000      1.00000000      1.00000000      1.00000000      1.00000000      1.00000000</v>
    <i name="NUPDOWN">     -1.00000000</i>
    <i type="logical" name="LSORBIT"> F  </i>
    <v name="SAXIS">      0.00000000      0.00000000      1.00000000</v>
    <i type="logical" name="LSPIRAL"> F  </i>
    <v name="QSPIRAL">      0.00000000      0.00000000      0.00000000</v>
    <i type="logical" name="LZEROZ"> F  </i>
   </separator>
   <separator name="electronic exchange-correlation" >
    <i type="logical" name="LASPH"> F  </i>
   </separator>
   <separator name="electronic convergence" >
    <i type="int" name="NELM">    60</i>
    <i type="int" name="NELMDL">    -5</i>
    <i type="int" name="NELMIN">     2</i>
    <i name="ENINI">    500.00000000</i>
    <separator name="electronic convergence detail" >
     <i type="logical" name="LDIAG"> T  </i>
     <i type="logical" name="LSUBROT"> F  </i>
     <i name="WEIMIN">      0.00000000</i>
     <i name="EBREAK">      0.00000000</i>
     <i name="DEPER">      0.30000000</i>
     <i type="int" name="NRMM">     4</i>
     <i name="TIME">      0.40000000</i>
    </separator>
   </separator>
   <separator name="electronic mixer" >
    <i name="AMIX">      0.40000000</i>
    <i name="BMIX">      1.00000000</i>
    <i name="AMIN">      0.10000000</i>
    <i name="AMIX_MAG">      1.60000000</i>
    <i name="BMIX_MAG">      1.00000000</i>
    <separator name="electronic mixer details" >
     <i type="int" name="IMIX">     4</i>
     <i type="logical" name="MIXFIRST"> F  </i>
     <i type="int" name="MAXMIX">   -45</i>
     <i name="WC">    100.00000000</i>
     <i type="int" name="INIMIX">     1</i>
     <i type="int" name="MIXPRE">     1</i>
     <i type="int" name="MREMOVE">     5</i>
    </separator>
   </separator>
   <separator name="electronic dipolcorrection" >
    <i type="logical" name="LDIPOL"> F  </i>
    <i type="logical" name="LMONO"> F  </i>
    <i type="int" name="IDIPOL">     0</i>
    <i name="EPSILON">      1.00000000</i>
    <v name="DIPOL">   -100.00000000   -100.00000000   -100.00000000</v>
    <i name="EFIELD">      0.00000000</i>
    <i type="logical" name="LVACPOTAV"> F  </i>
   </separator>
  </separator>
  <separator name="grids" >
   <i type="int" name="NGX">    80</i>
   <i type="int" name="NGY">    48</i>
   <i type="int" name="NGZ">    48</i>
   <i type="int" name="NGXF">   160</i>
   <i type="int" name="NGYF">    96</i>
   <i type="int" name="NGZF">    96</i>
   <i type="logical" name="ADDGRID"> F  </i>
  </separator>
  <separator name="ionic" >
   <i type="int" name="NSW">     0</i>
   <i type="int" name="IBRION">    -1</i>
   <i type="int" name="MDALGO">     0</i>
   <i type="int" name="ISIF">     2</i>
   <i name="PSTRESS">      0.00000000</i>
   <i name="EDIFFG">      0.00000010</i>
   <i type="int" name="NFREE">     0</i>
   <i name="POTIM">      0.50000000</i>
   <i name="SMASS">     -3.00000000</i>
   <i name="SCALEE">      1.00000000</i>
  </separator>
  <separator name="ionic md" >
   <i name="TEBEG">      0.00010000</i>
   <i name="TEEND">      0.00010000</i>
   <i type="int" name="NBLOCK">     1</i>
   <i type="int" name="KBLOCK">     1</i>
   <i type="int" name="NPACO">   256</i>
   <i name="APACO">     10.00000000</i>
  </separator>
  <separator name="symmetry" >
   <i type="int" name="ISYM">     2</i>
   <i name="SYMPREC">      0.00001000</i>
  </separator>
  <separator name="dos" >
   <i type="int" name="LORBIT">     0</i>
   <v name="RWIGS">     -1.00000000     -1.00000000</v>
   <i type="int" name="NEDOS">   301</i>
   <i name="EMIN">     10.00000000</i>
   <i name="EMAX">    -10.00000000</i>
   <i name="EFERMI">      0.00000000</i>
  </separator>
  <separator name="writing" >
   <i type="int" name="NWRITE">     2</i>
   <i type="logical" name="LWAVE"> F  </i>
   <i type="logical" name="LDOWNSAMPLE"> F  </i>
   <i type="logical" name="LCHARG"> F  </i>
   <i type="logical" name="LPARD"> F  </i>
   <i type="logical" name="LVTOT"> F  </i>
   <i type="logical" name="LVHAR"> F  </i>
   <i type="logical" name="LELF"> F  </i>
   <i type="logical" name="LOPTICS"> F  </i>
   <v name="STM">      0.00000000      0.00000000      0.00000000      0.00000000      0.00000000      0.00000000      0.00000000</v>
  </separator>
  <separator name="performance" >
   <i type="int" name="NPAR">     8</i>
   <i type="int" name="NSIM">     4</i>
   <i type="int" name="NBLK">    -1</i>
   <i type="logical" name="LPLANE"> T  </i>
   <i type="logical" name="LSCALAPACK"> T  </i>
   <i type="logical" name="LSCAAWARE"> F  </i>
   <i type="logical" name="LSCALU"> F  </i>
   <i type="logical" name="LASYNC"> F  </i>
   <i type="logical" name="LORBITALREAL"> F  </i>
  </separator>
  <separator name="miscellaneous" >
   <i type="int" name="IDIOT">     3</i>
   <i type="int" name="PHON_NSTRUCT">    -1</i>
   <i type="logical" name="LMUSIC"> F  </i>
   <v name="POMASS">    132.90000000     35.45300000</v>
   <v name="DARWINR">      0.00000000      0.00000000</v>
   <v name="DARWINV">      1.00000000      1.00000000</v>
   <i type="logical" name="LCORR"> T  </i>
  </separator>
  <i type="logical" name="GGA_COMPAT"> T  </i>
  <i type="logical" name="LBERRY"> F  </i>
  <i type="int" name="ICORELEVEL">     0</i>
  <i type="logical" name="LDAU"> F  </i>
  <i type="int" name="I_CONSTRAINED_M">     0</i>
  <separator name="electronic exchange-correlation" >
   <i type="string" name="GGA    ">PE</i>
   <i type="string" name="XC_C">1</i>
   <i type="int" name="VOSKOWN">     0</i>
   <i type="logical" name="LHFCALC"> F  </i>
   <i type="string" name="PRECFOCK"></i>
   <i type="logical" name="LSYMGRAD"> F  </i>
   <i type="logical" name="LHFONE"> F  </i>
   <i type="logical" name="LRHFCALC"> F  </i>
   <i type="logical" name="LTHOMAS"> F  </i>
   <i type="logical" name="LMODELHF"> F  </i>
   <i type="logical" name="LFOCKACE"> F  </i>
   <i name="ENCUT4O">     -1.00000000</i>
   <i type="int" name="EXXOEP">     0</i>
   <i type="int" name="FOURORBIT">     0</i>
   <i name="AEXX">      0.00000000</i>
   <i name="HFALPHA">      0.00000000</i>
   <i name="MCALPHA">      0.00000000</i>
   <i name="ALDAX">      1.00000000</i>
   <i name="AGGAX">      1.00000000</i>
   <i name="AMGGAX">      1.00000000</i>
   <i name="ALDAC">      1.00000000</i>
   <i name="AGGAC">      1.00000000</i>
   <i name="AMGGAC">      1.00000000</i>
   <i type="int" name="NKREDX">     1</i>
   <i type="int" name="NKREDY">     1</i>
   <i type="int" name="NKREDZ">     1</i>
   <i type="logical" name="SHIFTRED"> F  </i>
   <i type="logical" name="ODDONLY"> F  </i>
   <i type="logical" name="EVENONLY"> F  </i>
   <i type="int" name="LMAXFOCK">     0</i>
   <i type="int" name="NMAXFOCKAE">     0</i>
   <i type="logical" name="LFOCKAEDFT"> F  </i>
   <i name="HFSCREEN">      0.00000000</i>
   <i name="HFSCREENC">      0.00000000</i>
   <i type="int" name="NBANDSGWLOW">     0</i>
  </separator>
  <separator name="vdW DFT" >
   <i type="logical" name="LUSE_VDW"> F  </i>
   <i type="int" name="IVDW_NL">    -1</i>
   <i type="logical" name="LSPIN_VDW"> F  </i>
   <i name="ZAB_VDW">     -0.84910000</i>
   <i name="GAMMA_VDW">      1.39626340</i>
   <i name="ALPHA_VDW">      0.00000000</i>
   <i name="PARAM1">      0.12340000</i>
   <i name="PARAM2">      1.00000000</i>
   <i name="BPARAM">      6.30000000</i>
   <i name="CPARAM">      0.00930000</i>
  </separator>
  <separator name="model GW" >
   <i type="int" name="MODEL_GW">     0</i>
   <i name="MODEL_EPS0">     21.34448344</i>
   <i name="MODEL_ALPHA">      1.00000000</i>
  </separator>
  <separator name="linear response parameters" >
   <i type="logical" name="LEPSILON"> F  </i>
   <i type="logical" name="LRPA"> F  </i>
   <i type="logical" name="LNABLA"> F  </i>
   <i type="logical" name="LVEL"> F  </i>
   <i name="CSHIFT">      0.10000000</i>
   <i name="OMEGAMAX">     -1.00000000</i>
   <i name="DEG_THRESHOLD">      0.00200000</i>
   <i name="RTIME">     -0.10000000</i>
   <i name="WPLASMAI">      0.00000000</i>
   <v name="DFIELD">      0.00000000      0.00000000      0.00000000</v>
   <v name="WPLASMA">      0.00000000      0.00000000      0.00000000      0.00000000      0.00000000      0.00000000      0.00000000      0.00000000      0.00000000</v>
  </separator>
  <separator name="orbital magnetization" >
   <i type="logical" name="NUCIND"> F  </i>
   <v name="MAGPOS">      0.00000000      0.00000000      0.00000000</v>
   <i type="logical" name="LNICSALL"> T  </i>
   <i type="logical" name="ORBITALMAG"> F  </i>
   <i type="logical" name="LMAGBLOCH"> F  </i>
   <i type="logical" name="LCHIMAG"> F  </i>
   <i type="logical" name="LGAUGE"> T  </i>
   <i type="int" name="MAGATOM">     0</i>
   <v name="MAGDIPOL">      0.00000000      0.00000000      0.00000000</v>
   <v name="AVECCONST">      0.00000000      0.00000000      0.00000000</v>
  </separator>
  <separator name="response functions" >
   <i type="logical" name="LALL_IN_ONE"> F  </i>
   <i type="int" name="IALL_IN_ONE">    -1</i>
   <i type="int" name="NBANDS_WAVE">    -1</i>
   <i type="logical" name="LFINITE_TEMPERATURE"> F  </i>
   <i type="logical" name="LADDER"> F  </i>
   <i type="logical" name="LRPAFORCE"> F  </i>
   <i type="logical" name="LFXC"> F  </i>
   <i type="logical" name="LHARTREE"> T  </i>
   <i type="int" name="IBSE">     0</i>
   <v type="int" name="KPOINT">    -1     0     0     0</v>
   <i type="logical" name="LTCTC"> F  </i>
   <i type="logical" name="LTCTE"> F  </i>
   <i type="logical" name="LTETE"> F  </i>
   <i type="logical" name="LTRIPLET"> F  </i>
   <i type="logical" name="LFXCEPS"> F  </i>
   <i type="logical" name="LFXHEG"> F  </i>
   <i type="int" name="NATURALO">     2</i>
   <i type="logical" name="LHOLEGF"> F  </i>
   <i type="logical" name="L2ORDER"> F  </i>
   <i type="logical" name="LDMP1"> F  </i>
   <i type="logical" name="LMP2LT"> F  </i>
   <i type="logical" name="LSMP2LT"> F  </i>
   <i type="logical" name="LGWLF"> F  </i>
   <i name="ENCUTGW">     -1.60000002</i>
   <i name="ENCUTGWSOFT">     -1.60000002</i>
   <i name="ENCUTLF">     -1.00000000</i>
   <i type="logical" name="ESF_SPLINES"> F  </i>
   <i name="ESF_CONV">      0.01000000</i>
   <i type="int" name="ESF_NINTER">    15</i>
   <i type="int" name="LMAXMP2">    -1</i>
   <i name="SCISSOR">      0.00000000</i>
   <i type="int" name="NOMEGA">     0</i>
   <i type="int" name="NOMEGAR">     0</i>
   <i type="int" name="NBANDSGW">    -1</i>
   <i type="int" name="NBANDSO">    -1</i>
   <i type="int" name="NBANDSV">    -1</i>
   <i type="int" name="NELMGW">     1</i>
   <i type="int" name="NELMHF">     1</i>
   <i type="int" name="DIM">     3</i>
   <i type="int" name="IESPILON">     4</i>
   <i type="int" name="ANTIRES">     0</i>
   <i name="OMEGAMAX">    -30.00000000</i>
   <i name="OMEGAMIN">    -30.00000000</i>
   <i name="OMEGATL">   -200.00000000</i>
   <i type="int" name="OMEGAGRID">     0</i>
   <i name="CSHIFT">     -0.10000000</i>
   <i type="logical" name="LSELFENERGY"> F  </i>
   <i type="logical" name="LSPECTRAL"> F  </i>
   <i type="logical" name="LSPECTRALGW"> F  </i>
   <i type="logical" name="LSINGLES"> F  </i>
   <i type="logical" name="LFERMIGW"> F  </i>
   <i type="logical" name="ODDONLYGW"> F  </i>
   <i type="logical" name="EVENONLYGW"> F  </i>
   <i type="int" name="NKREDLFX">     1</i>
   <i type="int" name="NKREDLFY">     1</i>
   <i type="int" name="NKREDLFZ">     1</i>
   <i type="int" name="MAXMEM">  2800</i>
   <i type="int" name="TELESCOPE">     0</i>
   <i type="int" name="NTAUPAR">    -1</i>
   <i type="int" name="NOMEGAPAR">    -1</i>
   <i name="DAMP_NEWTON">      0.80000001</i>
   <i name="LAMBDA">      1.00000000</i>
  </separator>
  <separator name="External order field" >
   <i name="OFIELD_KAPPA">      0.00000000</i>
   <v name="OFIELD_K">      0.00000000      0.00000000      0.00000000</v>
   <i name="OFIELD_Q6_NEAR">      0.00000000</i>
   <i name="OFIELD_Q6_FAR">      0.00000000</i>
   <i name="OFIELD_A">      0.00000000</i>
  </separator>
  <separator name="optional k-points parameters" >
   <i type="int" name="KPOINTS_OPT_MODE">     1</i>
   <i type="logical" name="LKPOINTS_OPT"> F  </i>
  </separator>
 </parameters>
 <atominfo>
  <atoms>       8 </atoms>
  <types>       2 </types>
  <array name="atoms" >
   <dimension dim="1">ion</dimension>
   <field type="string">element</field>
   <field type="int">atomtype</field>
   <set>
    <rc><c>Cs</c><c>   1</c></rc>
    <rc><c>Cs</c><c>   1</c></rc>
    <rc><c>Cs</c><c>   1</c></rc>
    <rc><c>Cs</c><c>   1</c></rc>
    <rc><c>Cl</c><c>   2</c></rc>
    <rc><c>Cl</c><c>   2</c></rc>
    <rc><c>Cl</c><c>   2</c></rc>
    <rc><c>Cl</c><c>   2</c></rc>
   </set>
  </array>
  <array name="atomtypes" >
   <dimension dim="1">type</dimension>
   <field type="int">atomspertype</field>
   <field type="string">element</field>
   <field>mass</field>
   <field>valence</field>
   <field type="string">pseudopotential</field>
   <set>
    <rc><c>   4</c><c>Cs</c><c>    132.90000000</c><c>      9.00000000</c><c>  PAW_PBE Cs_sv 25Jan2019               </c></rc>
    <rc><c>   4</c><c>Cl</c><c>     35.45300000</c><c>      7.00000000</c><c>  PAW_PBE Cl 06Sep2000                  </c></rc>
   </set>
  </array>
 </atominfo>
 <structure name="initialpos" >
  <crystal>
   <varray name="basis" >
    <v>       4.14369834       4.14369834       8.28739668 </v>
    <v>       4.14369834      -4.14369834       0.00000000 </v>
    <v>       0.00000000       4.14369834      -4.14369834 </v>
   </varray>
   <i name="volume">    284.59311253 </i>
   <varray name="rec_basis" >
    <v>       0.06033258       0.06033258       0.06033258 </v>
    <v>       0.18099773      -0.06033258      -0.06033258 </v>
    <v>       0.12066515       0.12066515      -0.12066515 </v>
   </varray>
  </crystal>
  <varray name="positions" >
   <v>       0.00000000       0.00000000       0.00000000 </v>
   <v>       0.25000000       0.75000000       0.50000000 </v>
   <v>       0.50000000       0.50000000       0.00000000 </v>
   <v>       0.75000000       0.25000000       0.50000000 </v>
   <v>       0.37598523       0.12500000       0.25000000 </v>
   <v>       0.62500000       0.87500000       0.75000000 </v>
   <v>       0.87500000       0.62500000       0.25000000 </v>
   <v>       0.12500000       0.37500000       0.75000000 </v>
  </varray>
 </structure>
 <calculation>
  <scstep>
   <time name="dav">    2.04    2.04</time>
   <time name="total">    2.08    2.08</time>
   <energy>
    <i name="alphaZ">    214.16676563 </i>
    <i name="ewald">  -3265.84751655 </i>
    <i name="hartreedc">   -531.75804725 </i>
    <i name="XCdc">   -120.86789708 </i>
    <i name="pawpsdc">   3246.12869203 </i>
    <i name="pawaedc">  -2972.40719683 </i>
    <i name="eentropy">     -0.00014209 </i>
    <i name="bandstr">     36.28094460 </i>
    <i name="atom">   3861.61514281 </i>
    <i name="e_fr_energy">    467.31074527 </i>
    <i name="e_wo_entrp">    467.31088735 </i>
    <i name="e_0_energy">    467.31081631 </i>
   </energy>
  </scstep>
  <scstep>
   <time name="dav">    2.56    2.56</time>
   <time name="total">    2.56    2.56</time>
   <energy>
    <i name="e_fr_energy">     16.20904959 </i>
    <i name="e_wo_entrp">     16.20904959 </i>
    <i name="e_0_energy">     16.20904959 </i>
   </energy>
  </scstep>
  <scstep>
   <time name="dav">    2.29    2.29</time>
   <time name="total">    2.29    2.29</time>
   <energy>
    <i name="e_fr_energy">    -27.12166919 </i>
    <i name="e_wo_entrp">    -27.12166919 </i>
    <i name="e_0_energy">    -27.12166919 </i>
   </energy>
  </scstep>
  <scstep>
   <time name="dav">    2.27    2.27</time>
   <time name="total">    2.27    2.27</time>
   <energy>
    <i name="e_fr_energy">    -27.79880402 </i>
    <i name="e_wo_entrp">    -27.79880402 </i>
    <i name="e_0_energy">    -27.79880402 </i>
   </energy>
  </scstep>
  <scstep>
   <time name="dav">    2.18    2.18</time>
   <time name="total">    2.32    2.33</time>
   <energy>
    <i name="e_fr_energy">    -27.81212946 </i>
    <i name="e_wo_entrp">    -27.81212946 </i>
    <i name="e_0_energy">    -27.81212946 </i>
   </energy>
  </scstep>
  <scstep>
   <time name="dav">    2.19    2.19</time>
   <time name="total">    2.37    2.37</time>
   <energy>
    <i name="e_fr_energy">    -26.30042582 </i>
    <i name="e_wo_entrp">    -26.30042582 </i>
    <i name="e_0_energy">    -26.30042582 </i>
   </energy>
  </scstep>
  <scstep>
   <time name="dav">    2.46    2.46</time>
   <time name="total">    2.63    2.63</time>
   <energy>
    <i name="e_fr_energy">    -26.13148070 </i>
    <i name="e_wo_entrp">    -26.13148070 </i>
    <i name="e_0_energy">    -26.13148070 </i>
   </energy>
  </scstep>
  <scstep>
   <time name="dav">    2.22    2.22</time>
   <time name="total">    2.39    2.40</time>
   <energy>
    <i name="e_fr_energy">    -26.13432061 </i>
    <i name="e_wo_entrp">    -26.13432061 </i>
    <i name="e_0_energy">    -26.13432061 </i>
   </energy>
  </scstep>
  <scstep>
   <time name="dav">    2.41    2.41</time>
   <time name="total">    2.58    2.58</time>
   <energy>
    <i name="e_fr_energy">    -26.13129594 </i>
    <i name="e_wo_entrp">    -26.13129594 </i>
    <i name="e_0_energy">    -26.13129594 </i>
   </energy>
  </scstep>
  <scstep>
   <time name="dav">    2.20    2.20</time>
   <time name="total">    2.38    2.38</time>
   <energy>
    <i name="e_fr_energy">    -26.13206833 </i>
    <i name="e_wo_entrp">    -26.13206833 </i>
    <i name="e_0_energy">    -26.13206833 </i>
   </energy>
  </scstep>
  <scstep>
   <time name="dav">    2.22    2.22</time>
   <time name="total">    2.40    2.40</time>
   <energy>
    <i name="e_fr_energy">    -26.13226101 </i>
    <i name="e_wo_entrp">    -26.13226101 </i>
    <i name="e_0_energy">    -26.13226101 </i>
   </energy>
  </scstep>
  <scstep>
   <time name="dav">    2.23    2.23</time>
   <time name="total">    2.41    2.41</time>
   <energy>
    <i name="e_fr_energy">    -26.13226998 </i>
    <i name="e_wo_entrp">    -26.13226998 </i>
    <i name="e_0_energy">    -26.13226998 </i>
   </energy>
  </scstep>
  <scstep>
   <time name="dav">    2.36    2.36</time>
   <time name="total">    2.54    2.54</time>
   <energy>
    <i name="e_fr_energy">    -26.13226899 </i>
    <i name="e_wo_entrp">    -26.13226899 </i>
    <i name="e_0_energy">    -26.13226899 </i>
   </energy>
  </scstep>
  <scstep>
   <time name="dav">    2.21    2.21</time>
   <time name="total">    2.38    2.38</time>
   <energy>
    <i name="e_fr_energy">    -26.13226892 </i>
    <i name="e_wo_entrp">    -26.13226892 </i>
    <i name="e_0_energy">    -26.13226892 </i>
   </energy>
  </scstep>
  <scstep>
   <time name="dav">    1.86    1.86</time>
   <time name="total">    2.03    2.04</time>
   <energy>
    <i name="e_fr_energy">    -26.13226889 </i>
    <i name="e_wo_entrp">    -26.13226889 </i>
    <i name="e_0_energy">    -26.13226889 </i>
   </energy>
  </scstep>
  <scstep>
   <time name="dav">    1.75    1.75</time>
   <time name="total">    1.78    1.78</time>
   <energy>
    <i name="alphaZ">    214.16676563 </i>
    <i name="ewald">  -3265.84751655 </i>
    <i name="hartreedc">   -554.75544979 </i>
    <i name="XCdc">   -118.49247308 </i>
    <i name="pawpsdc">   3633.67753810 </i>
    <i name="pawaedc">  -3361.17443582 </i>
    <i name="eentropy">     -0.00000000 </i>
    <i name="bandstr">   -435.32184019 </i>
    <i name="atom">   3861.61514281 </i>
    <i name="e_fr_energy">    -26.13226889 </i>
    <i name="e_wo_entrp">    -26.13226889 </i>
    <i name="e_0_energy">    -26.13226889 </i>
   </energy>
  </scstep>
  <structure>
   <crystal>
    <varray name="basis" >
     <v>       4.14369834       4.14369834       8.28739668 </v>
     <v>       4.14369834      -4.14369834       0.00000000 </v>
     <v>       0.00000000       4.14369834      -4.14369834 </v>
    </varray>
    <i name="volume">    284.59311253 </i>
    <varray name="rec_basis" >
     <v>       0.06033258       0.06033258       0.06033258 </v>
     <v>       0.18099773      -0.06033258      -0.06033258 </v>
     <v>       0.12066515       0.12066515      -0.12066515 </v>
    </varray>
   </crystal>
   <varray name="positions" >
    <v>       0.00000000       0.00000000       0.00000000 </v>
    <v>       0.25000000       0.75000000       0.50000000 </v>
    <v>       0.50000000       0.50000000       0.00000000 </v>
    <v>       0.75000000       0.25000000       0.50000000 </v>
    <v>       0.37598523       0.12500000       0.25000000 </v>
    <v>       0.62500000       0.87500000       0.75000000 </v>
    <v>       0.87500000       0.62500000       0.25000000 </v>
    <v>       0.12500000       0.37500000       0.75000000 </v>
   </varray>
  </structure>
  <varray name="forces" >
   <v>       0.00017697       0.00017697       0.00033473 </v>
   <v>       0.00140601       0.00140601       0.00283880 </v>
   <v>       0.00140052       0.00140052       0.00288025 </v>
   <v>       0.00027258       0.00027258       0.00042476 </v>
   <v>      -0.00670377      -0.00670377      -0.01190562 </v>
   <v>       0.00097866       0.00097866       0.00196770 </v>
   <v>       0.00147448       0.00147448       0.00149747 </v>
   <v>       0.00099454       0.00099454       0.00196191 </v>
  </varray>
  <varray name="stress" >
   <v>       7.41752824       0.00059826       0.00157002 </v>
   <v>       0.00059826       7.41752824       0.00157002 </v>
   <v>       0.00157002       0.00157002       7.41716825 </v>
  </varray>
  <energy>
   <i name="e_fr_energy">    -26.13226889 </i>
   <i name="e_wo_entrp">    -26.13226889 </i>
   <i name="e_0_energy">    -26.13226889 </i>
  </energy>
  <time name="totalsc">   39.49   39.53</time>
  <eigenvalues>
   <array>
    <dimension dim="1">band</dimension>
    <dimension dim="2">kpoint</dimension>
    <dimension dim="3">spin</dimension>
    <field>eigene</field>
    <field>occ</field>
    <set>
     <set comment="spin 1">
      <set comment="kpoint 1">
       <r>  -19.7965    1.0000 </r>
       <r>  -19.6893    1.0000 </r>
       <r>  -19.6888    1.0000 </r>
       <r>  -19.5911    1.0000 </r>
       <r>  -12.5530    1.0000 </r>
       <r>  -12.5166    1.0000 </r>
       <r>  -12.5152    1.0000 </r>
       <r>  -12.3912    1.0000 </r>
       <r>   -6.8074    1.0000 </r>
       <r>   -6.8074    1.0000 </r>
       <r>   -6.8074    1.0000 </r>
       <r>   -6.5956    1.0000 </r>
       <r>   -6.5956    1.0000 </r>
       <r>   -6.5954    1.0000 </r>
       <r>   -6.5954    1.0000 </r>
       <r>   -6.5244    1.0000 </r>
       <r>   -6.5231    1.0000 </r>
       <r>   -6.2935    1.0000 </r>
       <r>   -6.2935    1.0000 </r>
       <r>   -6.2935    1.0000 </r>
       <r>   -1.4541    1.0000 </r>
       <r>   -1.4541    1.0000 </r>
       <r>   -1.4541    1.0000 </r>
       <r>   -0.8537    1.0000 </r>
       <r>   -0.8533    1.0000 </r>
       <r>   -0.8492    1.0000 </r>
       <r>   -0.8489    1.0000 </r>
       <r>   -0.8397    1.0000 </r>
       <r>   -0.8380    1.0000 </r>
       <r>   -0.3952    1.0000 </r>
       <r>   -0.3951    1.0000 </r>
       <r>   -0.3951    1.0000 </r>
       <r>    4.7978    0.0000 </r>
       <r>    5.0131    0.0000 </r>
       <r>    5.0131    0.0000 </r>
       <r>    7.1323    0.0000 </r>
       <r>    7.1396    0.0000 </r>
       <r>    7.3102    0.0000 </r>
       <r>    7.3107    0.0000 </r>
       <r>    7.3119    0.0000 </r>
      </set>
      <set comment="kpoint 2">
       <r>  -19.7880    1.0000 </r>
       <r>  -19.7286    1.0000 </r>
       <r>  -19.6509    1.0000 </r>
       <r>  -19.5982    1.0000 </r>
       <r>  -12.5565    1.0000 </r>
       <r>  -12.5471    1.0000 </r>
       <r>  -12.4710    1.0000 </r>
       <r>  -12.4003    1.0000 </r>
       <r>   -6.8103    1.0000 </r>
       <r>   -6.7943    1.0000 </r>
       <r>   -6.7943    1.0000 </r>
       <r>   -6.6886    1.0000 </r>
       <r>   -6.6865    1.0000 </r>
       <r>   -6.6865    1.0000 </r>
       <r>   -6.4914    1.0000 </r>
       <r>   -6.4914    1.0000 </r>
       <r>   -6.3637    1.0000 </r>
       <r>   -6.3200    1.0000 </r>
       <r>   -6.3200    1.0000 </r>
       <r>   -6.2817    1.0000 </r>
       <r>   -1.4025    1.0000 </r>
       <r>   -1.4025    1.0000 </r>
       <r>   -1.3262    1.0000 </r>
       <r>   -1.0624    1.0000 </r>
       <r>   -1.0623    1.0000 </r>
       <r>   -0.8752    1.0000 </r>
       <r>   -0.8484    1.0000 </r>
       <r>   -0.6637    1.0000 </r>
       <r>   -0.6637    1.0000 </r>
       <r>   -0.5292    1.0000 </r>
       <r>   -0.4272    1.0000 </r>
       <r>   -0.4272    1.0000 </r>
       <r>    5.0721    0.0000 </r>
       <r>    5.1896    0.0000 </r>
       <r>    5.1896    0.0000 </r>
       <r>    6.4340    0.0000 </r>
       <r>    6.4340    0.0000 </r>
       <r>    6.5089    0.0000 </r>
       <r>    6.9612    0.0000 </r>
       <r>    7.6810    0.0000 </r>
      </set>
      <set comment="kpoint 3">
       <r>  -19.7672    1.0000 </r>
       <r>  -19.7602    1.0000 </r>
       <r>  -19.6227    1.0000 </r>
       <r>  -19.6156    1.0000 </r>
       <r>  -12.5607    1.0000 </r>
       <r>  -12.5567    1.0000 </r>
       <r>  -12.4310    1.0000 </r>
       <r>  -12.4254    1.0000 </r>
       <r>   -6.7891    1.0000 </r>
       <r>   -6.7841    1.0000 </r>
       <r>   -6.7572    1.0000 </r>
       <r>   -6.7572    1.0000 </r>
       <r>   -6.7508    1.0000 </r>
       <r>   -6.7508    1.0000 </r>
       <r>   -6.3955    1.0000 </r>
       <r>   -6.3955    1.0000 </r>
       <r>   -6.3889    1.0000 </r>
       <r>   -6.3889    1.0000 </r>
       <r>   -6.2867    1.0000 </r>
       <r>   -6.2804    1.0000 </r>
       <r>   -1.2612    1.0000 </r>
       <r>   -1.2611    1.0000 </r>
       <r>   -1.2599    1.0000 </r>
       <r>   -1.2598    1.0000 </r>
       <r>   -1.0487    1.0000 </r>
       <r>   -1.0475    1.0000 </r>
       <r>   -0.7691    1.0000 </r>
       <r>   -0.7651    1.0000 </r>
       <r>   -0.5235    1.0000 </r>
       <r>   -0.5230    1.0000 </r>
       <r>   -0.5156    1.0000 </r>
       <r>   -0.5151    1.0000 </r>
       <r>    5.6855    0.0000 </r>
       <r>    5.6865    0.0000 </r>
       <r>    5.6922    0.0000 </r>
       <r>    5.6931    0.0000 </r>
       <r>    5.7242    0.0000 </r>
       <r>    5.7335    0.0000 </r>
       <r>    7.1048    0.0000 </r>
       <r>    7.1233    0.0000 </r>
      </set>
      <set comment="kpoint 4">
       <r>  -19.7887    1.0000 </r>
       <r>  -19.6942    1.0000 </r>
       <r>  -19.6830    1.0000 </r>
       <r>  -19.5975    1.0000 </r>
       <r>  -12.5562    1.0000 </r>
       <r>  -12.5238    1.0000 </r>
       <r>  -12.5137    1.0000 </r>
       <r>  -12.3993    1.0000 </r>
       <r>   -6.8249    1.0000 </r>
       <r>   -6.8222    1.0000 </r>
       <r>   -6.7766    1.0000 </r>
       <r>   -6.7547    1.0000 </r>
       <r>   -6.7148    1.0000 </r>
       <r>   -6.5994    1.0000 </r>
       <r>   -6.5011    1.0000 </r>
       <r>   -6.4779    1.0000 </r>
       <r>   -6.3462    1.0000 </r>
       <r>   -6.3391    1.0000 </r>
       <r>   -6.2905    1.0000 </r>
       <r>   -6.2811    1.0000 </r>
       <r>   -1.4053    1.0000 </r>
       <r>   -1.3940    1.0000 </r>
       <r>   -1.3483    1.0000 </r>
       <r>   -1.0181    1.0000 </r>
       <r>   -1.0008    1.0000 </r>
       <r>   -0.8958    1.0000 </r>
       <r>   -0.7834    1.0000 </r>
       <r>   -0.6700    1.0000 </r>
       <r>   -0.6652    1.0000 </r>
       <r>   -0.5313    1.0000 </r>
       <r>   -0.4205    1.0000 </r>
       <r>   -0.4193    1.0000 </r>
       <r>    5.0506    0.0000 </r>
       <r>    5.1092    0.0000 </r>
       <r>    5.2423    0.0000 </r>
       <r>    6.5206    0.0000 </r>
       <r>    6.8723    0.0000 </r>
       <r>    6.9245    0.0000 </r>
       <r>    7.0389    0.0000 </r>
       <r>    7.3943    0.0000 </r>
      </set>
      <set comment="kpoint 5">
       <r>  -19.7784    1.0000 </r>
       <r>  -19.7308    1.0000 </r>
       <r>  -19.6483    1.0000 </r>
       <r>  -19.6061    1.0000 </r>
       <r>  -12.5609    1.0000 </r>
       <r>  -12.5515    1.0000 </r>
       <r>  -12.4691    1.0000 </r>
       <r>  -12.4102    1.0000 </r>
       <r>   -6.8587    1.0000 </r>
       <r>   -6.8560    1.0000 </r>
       <r>   -6.8548    1.0000 </r>
       <r>   -6.6612    1.0000 </r>
       <r>   -6.6439    1.0000 </r>
       <r>   -6.5981    1.0000 </r>
       <r>   -6.5802    1.0000 </r>
       <r>   -6.4505    1.0000 </r>
       <r>   -6.4231    1.0000 </r>
       <r>   -6.2725    1.0000 </r>
       <r>   -6.2650    1.0000 </r>
       <r>   -6.2600    1.0000 </r>
       <r>   -1.3239    1.0000 </r>
       <r>   -1.3072    1.0000 </r>
       <r>   -1.2270    1.0000 </r>
       <r>   -1.1044    1.0000 </r>
       <r>   -1.0896    1.0000 </r>
       <r>   -0.9805    1.0000 </r>
       <r>   -0.7744    1.0000 </r>
       <r>   -0.7075    1.0000 </r>
       <r>   -0.6349    1.0000 </r>
       <r>   -0.5679    1.0000 </r>
       <r>   -0.4493    1.0000 </r>
       <r>   -0.4479    1.0000 </r>
       <r>    5.2098    0.0000 </r>
       <r>    5.3676    0.0000 </r>
       <r>    5.6079    0.0000 </r>
       <r>    5.9808    0.0000 </r>
       <r>    6.4485    0.0000 </r>
       <r>    6.7326    0.0000 </r>
       <r>    6.8281    0.0000 </r>
       <r>    7.4122    0.0000 </r>
      </set>
      <set comment="kpoint 6">
       <r>  -19.7637    1.0000 </r>
       <r>  -19.7525    1.0000 </r>
       <r>  -19.6288    1.0000 </r>
       <r>  -19.6185    1.0000 </r>
       <r>  -12.5635    1.0000 </r>
       <r>  -12.5591    1.0000 </r>
       <r>  -12.4397    1.0000 </r>
       <r>  -12.4286    1.0000 </r>
       <r>   -6.8808    1.0000 </r>
       <r>   -6.8500    1.0000 </r>
       <r>   -6.8436    1.0000 </r>
       <r>   -6.7353    1.0000 </r>
       <r>   -6.6769    1.0000 </r>
       <r>   -6.5592    1.0000 </r>
       <r>   -6.5353    1.0000 </r>
       <r>   -6.4720    1.0000 </r>
       <r>   -6.3497    1.0000 </r>
       <r>   -6.3069    1.0000 </r>
       <r>   -6.2684    1.0000 </r>
       <r>   -6.2431    1.0000 </r>
       <r>   -1.2814    1.0000 </r>
       <r>   -1.2225    1.0000 </r>
       <r>   -1.2117    1.0000 </r>
       <r>   -1.1505    1.0000 </r>
       <r>   -1.0152    1.0000 </r>
       <r>   -0.9442    1.0000 </r>
       <r>   -0.9290    1.0000 </r>
       <r>   -0.8371    1.0000 </r>
       <r>   -0.5451    1.0000 </r>
       <r>   -0.5223    1.0000 </r>
       <r>   -0.5141    1.0000 </r>
       <r>   -0.4777    1.0000 </r>
       <r>    5.4930    0.0000 </r>
       <r>    5.6280    0.0000 </r>
       <r>    5.7909    0.0000 </r>
       <r>    5.9200    0.0000 </r>
       <r>    5.9485    0.0000 </r>
       <r>    6.2790    0.0000 </r>
       <r>    6.8984    0.0000 </r>
       <r>    7.0763    0.0000 </r>
      </set>
      <set comment="kpoint 7">
       <r>  -19.7832    1.0000 </r>
       <r>  -19.7200    1.0000 </r>
       <r>  -19.6581    1.0000 </r>
       <r>  -19.6022    1.0000 </r>
       <r>  -12.5579    1.0000 </r>
       <r>  -12.5475    1.0000 </r>
       <r>  -12.4812    1.0000 </r>
       <r>  -12.4055    1.0000 </r>
       <r>   -6.8381    1.0000 </r>
       <r>   -6.8028    1.0000 </r>
       <r>   -6.7852    1.0000 </r>
       <r>   -6.7598    1.0000 </r>
       <r>   -6.7512    1.0000 </r>
       <r>   -6.6604    1.0000 </r>
       <r>   -6.4498    1.0000 </r>
       <r>   -6.3819    1.0000 </r>
       <r>   -6.3611    1.0000 </r>
       <r>   -6.3516    1.0000 </r>
       <r>   -6.3104    1.0000 </r>
       <r>   -6.2735    1.0000 </r>
       <r>   -1.3858    1.0000 </r>
       <r>   -1.3546    1.0000 </r>
       <r>   -1.2648    1.0000 </r>
       <r>   -1.0734    1.0000 </r>
       <r>   -1.0171    1.0000 </r>
       <r>   -0.9631    1.0000 </r>
       <r>   -0.7531    1.0000 </r>
       <r>   -0.6987    1.0000 </r>
       <r>   -0.6040    1.0000 </r>
       <r>   -0.5914    1.0000 </r>
       <r>   -0.4483    1.0000 </r>
       <r>   -0.4338    1.0000 </r>
       <r>    5.1959    0.0000 </r>
       <r>    5.2454    0.0000 </r>
       <r>    5.3556    0.0000 </r>
       <r>    6.2778    0.0000 </r>
       <r>    6.5592    0.0000 </r>
       <r>    6.7774    0.0000 </r>
       <r>    7.0348    0.0000 </r>
       <r>    7.0638    0.0000 </r>
      </set>
      <set comment="kpoint 8">
       <r>  -19.7676    1.0000 </r>
       <r>  -19.6932    1.0000 </r>
       <r>  -19.6822    1.0000 </r>
       <r>  -19.6152    1.0000 </r>
       <r>  -12.5627    1.0000 </r>
       <r>  -12.5263    1.0000 </r>
       <r>  -12.5232    1.0000 </r>
       <r>  -12.4224    1.0000 </r>
       <r>   -6.8788    1.0000 </r>
       <r>   -6.8584    1.0000 </r>
       <r>   -6.8577    1.0000 </r>
       <r>   -6.8150    1.0000 </r>
       <r>   -6.6752    1.0000 </r>
       <r>   -6.6112    1.0000 </r>
       <r>   -6.4761    1.0000 </r>
       <r>   -6.4555    1.0000 </r>
       <r>   -6.3816    1.0000 </r>
       <r>   -6.2836    1.0000 </r>
       <r>   -6.2597    1.0000 </r>
       <r>   -6.1671    1.0000 </r>
       <r>   -1.2749    1.0000 </r>
       <r>   -1.2353    1.0000 </r>
       <r>   -1.1558    1.0000 </r>
       <r>   -1.0864    1.0000 </r>
       <r>   -1.0587    1.0000 </r>
       <r>   -0.8877    1.0000 </r>
       <r>   -0.8274    1.0000 </r>
       <r>   -0.7359    1.0000 </r>
       <r>   -0.5541    1.0000 </r>
       <r>   -0.5401    1.0000 </r>
       <r>   -0.4889    1.0000 </r>
       <r>   -0.4784    1.0000 </r>
       <r>    5.3835    0.0000 </r>
       <r>    5.6423    0.0000 </r>
       <r>    5.9126    0.0000 </r>
       <r>    5.9830    0.0000 </r>
       <r>    6.4862    0.0000 </r>
       <r>    6.8358    0.0000 </r>
       <r>    6.8385    0.0000 </r>
       <r>    7.1312    0.0000 </r>
      </set>
      <set comment="kpoint 9">
       <r>  -19.7586    1.0000 </r>
       <r>  -19.7225    1.0000 </r>
       <r>  -19.6551    1.0000 </r>
       <r>  -19.6221    1.0000 </r>
       <r>  -12.5712    1.0000 </r>
       <r>  -12.5503    1.0000 </r>
       <r>  -12.4818    1.0000 </r>
       <r>  -12.4299    1.0000 </r>
       <r>   -6.9246    1.0000 </r>
       <r>   -6.9245    1.0000 </r>
       <r>   -6.9179    1.0000 </r>
       <r>   -6.6846    1.0000 </r>
       <r>   -6.5944    1.0000 </r>
       <r>   -6.5695    1.0000 </r>
       <r>   -6.5070    1.0000 </r>
       <r>   -6.5008    1.0000 </r>
       <r>   -6.4612    1.0000 </r>
       <r>   -6.2279    1.0000 </r>
       <r>   -6.2279    1.0000 </r>
       <r>   -6.1739    1.0000 </r>
       <r>   -1.1376    1.0000 </r>
       <r>   -1.1375    1.0000 </r>
       <r>   -1.1141    1.0000 </r>
       <r>   -1.0676    1.0000 </r>
       <r>   -1.0640    1.0000 </r>
       <r>   -1.0267    1.0000 </r>
       <r>   -1.0002    1.0000 </r>
       <r>   -0.6550    1.0000 </r>
       <r>   -0.6447    1.0000 </r>
       <r>   -0.5159    1.0000 </r>
       <r>   -0.5038    1.0000 </r>
       <r>   -0.5037    1.0000 </r>
       <r>    5.4068    0.0000 </r>
       <r>    5.8573    0.0000 </r>
       <r>    5.9537    0.0000 </r>
       <r>    6.4255    0.0000 </r>
       <r>    6.4669    0.0000 </r>
       <r>    6.6995    0.0000 </r>
       <r>    6.7884    0.0000 </r>
       <r>    7.1598    0.0000 </r>
      </set>
      <set comment="kpoint 10">
       <r>  -19.7490    1.0000 </r>
       <r>  -19.7371    1.0000 </r>
       <r>  -19.6409    1.0000 </r>
       <r>  -19.6313    1.0000 </r>
       <r>  -12.5737    1.0000 </r>
       <r>  -12.5581    1.0000 </r>
       <r>  -12.4543    1.0000 </r>
       <r>  -12.4465    1.0000 </r>
       <r>   -6.9425    1.0000 </r>
       <r>   -6.9288    1.0000 </r>
       <r>   -6.8785    1.0000 </r>
       <r>   -6.6963    1.0000 </r>
       <r>   -6.6771    1.0000 </r>
       <r>   -6.6299    1.0000 </r>
       <r>   -6.5347    1.0000 </r>
       <r>   -6.3928    1.0000 </r>
       <r>   -6.3293    1.0000 </r>
       <r>   -6.2427    1.0000 </r>
       <r>   -6.2309    1.0000 </r>
       <r>   -6.2283    1.0000 </r>
       <r>   -1.2036    1.0000 </r>
       <r>   -1.1997    1.0000 </r>
       <r>   -1.1531    1.0000 </r>
       <r>   -1.0506    1.0000 </r>
       <r>   -0.9987    1.0000 </r>
       <r>   -0.9291    1.0000 </r>
       <r>   -0.8797    1.0000 </r>
       <r>   -0.7579    1.0000 </r>
       <r>   -0.5812    1.0000 </r>
       <r>   -0.5723    1.0000 </r>
       <r>   -0.5395    1.0000 </r>
       <r>   -0.5183    1.0000 </r>
       <r>    5.7204    0.0000 </r>
       <r>    5.7246    0.0000 </r>
       <r>    6.1249    0.0000 </r>
       <r>    6.3007    0.0000 </r>
       <r>    6.3792    0.0000 </r>
       <r>    6.4169    0.0000 </r>
       <r>    6.5432    0.0000 </r>
       <r>    6.8930    0.0000 </r>
      </set>
      <set comment="kpoint 11">
       <r>  -19.7640    1.0000 </r>
       <r>  -19.7112    1.0000 </r>
       <r>  -19.6642    1.0000 </r>
       <r>  -19.6188    1.0000 </r>
       <r>  -12.5603    1.0000 </r>
       <r>  -12.5563    1.0000 </r>
       <r>  -12.4894    1.0000 </r>
       <r>  -12.4281    1.0000 </r>
       <r>   -6.9053    1.0000 </r>
       <r>   -6.8379    1.0000 </r>
       <r>   -6.7898    1.0000 </r>
       <r>   -6.7849    1.0000 </r>
       <r>   -6.7540    1.0000 </r>
       <r>   -6.7538    1.0000 </r>
       <r>   -6.3923    1.0000 </r>
       <r>   -6.3923    1.0000 </r>
       <r>   -6.3114    1.0000 </r>
       <r>   -6.2864    1.0000 </r>
       <r>   -6.2834    1.0000 </r>
       <r>   -6.2258    1.0000 </r>
       <r>   -1.2606    1.0000 </r>
       <r>   -1.2605    1.0000 </r>
       <r>   -1.2301    1.0000 </r>
       <r>   -1.0482    1.0000 </r>
       <r>   -1.0176    1.0000 </r>
       <r>   -0.8561    1.0000 </r>
       <r>   -0.7672    1.0000 </r>
       <r>   -0.7139    1.0000 </r>
       <r>   -0.5973    1.0000 </r>
       <r>   -0.5466    1.0000 </r>
       <r>   -0.5193    1.0000 </r>
       <r>   -0.5192    1.0000 </r>
       <r>    5.6893    0.0000 </r>
       <r>    5.6893    0.0000 </r>
       <r>    5.7288    0.0000 </r>
       <r>    6.1601    0.0000 </r>
       <r>    6.2403    0.0000 </r>
       <r>    6.3160    0.0000 </r>
       <r>    6.7872    0.0000 </r>
       <r>    7.1141    0.0000 </r>
      </set>
      <set comment="kpoint 12">
       <r>  -19.7394    1.0000 </r>
       <r>  -19.6912    1.0000 </r>
       <r>  -19.6831    1.0000 </r>
       <r>  -19.6392    1.0000 </r>
       <r>  -12.5653    1.0000 </r>
       <r>  -12.5412    1.0000 </r>
       <r>  -12.5151    1.0000 </r>
       <r>  -12.4551    1.0000 </r>
       <r>   -6.8933    1.0000 </r>
       <r>   -6.8801    1.0000 </r>
       <r>   -6.8773    1.0000 </r>
       <r>   -6.8704    1.0000 </r>
       <r>   -6.7643    1.0000 </r>
       <r>   -6.6408    1.0000 </r>
       <r>   -6.4137    1.0000 </r>
       <r>   -6.3870    1.0000 </r>
       <r>   -6.3180    1.0000 </r>
       <r>   -6.2788    1.0000 </r>
       <r>   -6.2631    1.0000 </r>
       <r>   -6.1249    1.0000 </r>
       <r>   -1.2369    1.0000 </r>
       <r>   -1.1159    1.0000 </r>
       <r>   -1.0940    1.0000 </r>
       <r>   -1.0338    1.0000 </r>
       <r>   -1.0282    1.0000 </r>
       <r>   -0.8216    1.0000 </r>
       <r>   -0.7992    1.0000 </r>
       <r>   -0.7523    1.0000 </r>
       <r>   -0.5935    1.0000 </r>
       <r>   -0.5353    1.0000 </r>
       <r>   -0.5295    1.0000 </r>
       <r>   -0.5090    1.0000 </r>
       <r>    5.7905    0.0000 </r>
       <r>    5.8476    0.0000 </r>
       <r>    6.2826    0.0000 </r>
       <r>    6.2941    0.0000 </r>
       <r>    6.5969    0.0000 </r>
       <r>    6.6063    0.0000 </r>
       <r>    6.8607    0.0000 </r>
       <r>    6.9040    0.0000 </r>
      </set>
      <set comment="kpoint 13">
       <r>  -19.7359    1.0000 </r>
       <r>  -19.7031    1.0000 </r>
       <r>  -19.6735    1.0000 </r>
       <r>  -19.6405    1.0000 </r>
       <r>  -12.5812    1.0000 </r>
       <r>  -12.5346    1.0000 </r>
       <r>  -12.5064    1.0000 </r>
       <r>  -12.4534    1.0000 </r>
       <r>   -6.9795    1.0000 </r>
       <r>   -6.9752    1.0000 </r>
       <r>   -6.8617    1.0000 </r>
       <r>   -6.7403    1.0000 </r>
       <r>   -6.7098    1.0000 </r>
       <r>   -6.5915    1.0000 </r>
       <r>   -6.5192    1.0000 </r>
       <r>   -6.4528    1.0000 </r>
       <r>   -6.2555    1.0000 </r>
       <r>   -6.2256    1.0000 </r>
       <r>   -6.1982    1.0000 </r>
       <r>   -6.1975    1.0000 </r>
       <r>   -1.3088    1.0000 </r>
       <r>   -1.0885    1.0000 </r>
       <r>   -1.0492    1.0000 </r>
       <r>   -0.9723    1.0000 </r>
       <r>   -0.9571    1.0000 </r>
       <r>   -0.9490    1.0000 </r>
       <r>   -0.7208    1.0000 </r>
       <r>   -0.6985    1.0000 </r>
       <r>   -0.6142    1.0000 </r>
       <r>   -0.5781    1.0000 </r>
       <r>   -0.5751    1.0000 </r>
       <r>   -0.5628    1.0000 </r>
       <r>    5.7289    0.0000 </r>
       <r>    6.1257    0.0000 </r>
       <r>    6.1545    0.0000 </r>
       <r>    6.2329    0.0000 </r>
       <r>    6.5877    0.0000 </r>
       <r>    6.6486    0.0000 </r>
       <r>    6.8095    0.0000 </r>
       <r>    7.1097    0.0000 </r>
      </set>
      <set comment="kpoint 14">
       <r>  -19.7271    1.0000 </r>
       <r>  -19.7194    1.0000 </r>
       <r>  -19.6585    1.0000 </r>
       <r>  -19.6480    1.0000 </r>
       <r>  -12.5870    1.0000 </r>
       <r>  -12.5442    1.0000 </r>
       <r>  -12.4803    1.0000 </r>
       <r>  -12.4636    1.0000 </r>
       <r>   -7.0089    1.0000 </r>
       <r>   -7.0034    1.0000 </r>
       <r>   -6.7755    1.0000 </r>
       <r>   -6.7629    1.0000 </r>
       <r>   -6.6329    1.0000 </r>
       <r>   -6.6080    1.0000 </r>
       <r>   -6.5749    1.0000 </r>
       <r>   -6.4753    1.0000 </r>
       <r>   -6.3554    1.0000 </r>
       <r>   -6.1813    1.0000 </r>
       <r>   -6.1784    1.0000 </r>
       <r>   -6.1461    1.0000 </r>
       <r>   -1.4390    1.0000 </r>
       <r>   -1.0397    1.0000 </r>
       <r>   -1.0267    1.0000 </r>
       <r>   -0.9202    1.0000 </r>
       <r>   -0.8845    1.0000 </r>
       <r>   -0.8694    1.0000 </r>
       <r>   -0.8017    1.0000 </r>
       <r>   -0.6858    1.0000 </r>
       <r>   -0.6608    1.0000 </r>
       <r>   -0.6074    1.0000 </r>
       <r>   -0.5929    1.0000 </r>
       <r>   -0.5459    1.0000 </r>
       <r>    5.8067    0.0000 </r>
       <r>    5.8421    0.0000 </r>
       <r>    5.9078    0.0000 </r>
       <r>    6.3555    0.0000 </r>
       <r>    6.6575    0.0000 </r>
       <r>    6.7882    0.0000 </r>
       <r>    6.9211    0.0000 </r>
       <r>    6.9500    0.0000 </r>
      </set>
      <set comment="kpoint 15">
       <r>  -19.7349    1.0000 </r>
       <r>  -19.7088    1.0000 </r>
       <r>  -19.6646    1.0000 </r>
       <r>  -19.6447    1.0000 </r>
       <r>  -12.5729    1.0000 </r>
       <r>  -12.5516    1.0000 </r>
       <r>  -12.4879    1.0000 </r>
       <r>  -12.4638    1.0000 </r>
       <r>   -6.9749    1.0000 </r>
       <r>   -6.9241    1.0000 </r>
       <r>   -6.8368    1.0000 </r>
       <r>   -6.7620    1.0000 </r>
       <r>   -6.7462    1.0000 </r>
       <r>   -6.5985    1.0000 </r>
       <r>   -6.5457    1.0000 </r>
       <r>   -6.4121    1.0000 </r>
       <r>   -6.3335    1.0000 </r>
       <r>   -6.2543    1.0000 </r>
       <r>   -6.2214    1.0000 </r>
       <r>   -6.0989    1.0000 </r>
       <r>   -1.3950    1.0000 </r>
       <r>   -1.1176    1.0000 </r>
       <r>   -1.0682    1.0000 </r>
       <r>   -0.9222    1.0000 </r>
       <r>   -0.9116    1.0000 </r>
       <r>   -0.8476    1.0000 </r>
       <r>   -0.7983    1.0000 </r>
       <r>   -0.6959    1.0000 </r>
       <r>   -0.6390    1.0000 </r>
       <r>   -0.6078    1.0000 </r>
       <r>   -0.5664    1.0000 </r>
       <r>   -0.4797    1.0000 </r>
       <r>    5.6960    0.0000 </r>
       <r>    5.9109    0.0000 </r>
       <r>    6.1465    0.0000 </r>
       <r>    6.2211    0.0000 </r>
       <r>    6.3364    0.0000 </r>
       <r>    6.5481    0.0000 </r>
       <r>    6.9015    0.0000 </r>
       <r>    7.1197    0.0000 </r>
      </set>
      <set comment="kpoint 16">
       <r>  -19.7151    1.0000 </r>
       <r>  -19.7081    1.0000 </r>
       <r>  -19.6673    1.0000 </r>
       <r>  -19.6603    1.0000 </r>
       <r>  -12.5599    1.0000 </r>
       <r>  -12.5560    1.0000 </r>
       <r>  -12.4918    1.0000 </r>
       <r>  -12.4867    1.0000 </r>
       <r>   -6.9084    1.0000 </r>
       <r>   -6.9021    1.0000 </r>
       <r>   -6.8411    1.0000 </r>
       <r>   -6.8344    1.0000 </r>
       <r>   -6.7917    1.0000 </r>
       <r>   -6.7842    1.0000 </r>
       <r>   -6.3142    1.0000 </r>
       <r>   -6.3083    1.0000 </r>
       <r>   -6.2898    1.0000 </r>
       <r>   -6.2833    1.0000 </r>
       <r>   -6.2293    1.0000 </r>
       <r>   -6.2225    1.0000 </r>
       <r>   -1.2310    1.0000 </r>
       <r>   -1.2294    1.0000 </r>
       <r>   -1.0199    1.0000 </r>
       <r>   -1.0155    1.0000 </r>
       <r>   -0.8578    1.0000 </r>
       <r>   -0.8544    1.0000 </r>
       <r>   -0.7176    1.0000 </r>
       <r>   -0.7100    1.0000 </r>
       <r>   -0.6005    1.0000 </r>
       <r>   -0.5939    1.0000 </r>
       <r>   -0.5488    1.0000 </r>
       <r>   -0.5443    1.0000 </r>
       <r>    6.1569    0.0000 </r>
       <r>    6.1633    0.0000 </r>
       <r>    6.2394    0.0000 </r>
       <r>    6.2412    0.0000 </r>
       <r>    6.3126    0.0000 </r>
       <r>    6.3194    0.0000 </r>
       <r>    6.7826    0.0000 </r>
       <r>    6.7918    0.0000 </r>
      </set>
      <set comment="kpoint 17">
       <r>  -19.7183    1.0000 </r>
       <r>  -19.7011    1.0000 </r>
       <r>  -19.6760    1.0000 </r>
       <r>  -19.6553    1.0000 </r>
       <r>  -12.5825    1.0000 </r>
       <r>  -12.5330    1.0000 </r>
       <r>  -12.5037    1.0000 </r>
       <r>  -12.4744    1.0000 </r>
       <r>   -6.9998    1.0000 </r>
       <r>   -6.9768    1.0000 </r>
       <r>   -6.8068    1.0000 </r>
       <r>   -6.7632    1.0000 </r>
       <r>   -6.7207    1.0000 </r>
       <r>   -6.6793    1.0000 </r>
       <r>   -6.4280    1.0000 </r>
       <r>   -6.4222    1.0000 </r>
       <r>   -6.3943    1.0000 </r>
       <r>   -6.2067    1.0000 </r>
       <r>   -6.1925    1.0000 </r>
       <r>   -6.1140    1.0000 </r>
       <r>   -1.4387    1.0000 </r>
       <r>   -1.0229    1.0000 </r>
       <r>   -1.0167    1.0000 </r>
       <r>   -0.8886    1.0000 </r>
       <r>   -0.8704    1.0000 </r>
       <r>   -0.8307    1.0000 </r>
       <r>   -0.7934    1.0000 </r>
       <r>   -0.7087    1.0000 </r>
       <r>   -0.6452    1.0000 </r>
       <r>   -0.6302    1.0000 </r>
       <r>   -0.5858    1.0000 </r>
       <r>   -0.4966    1.0000 </r>
       <r>    5.7135    0.0000 </r>
       <r>    5.8233    0.0000 </r>
       <r>    6.0541    0.0000 </r>
       <r>    6.6522    0.0000 </r>
       <r>    6.7657    0.0000 </r>
       <r>    6.8036    0.0000 </r>
       <r>    6.8743    0.0000 </r>
       <r>    7.0408    0.0000 </r>
      </set>
      <set comment="kpoint 18">
       <r>  -19.7201    1.0000 </r>
       <r>  -19.6897    1.0000 </r>
       <r>  -19.6882    1.0000 </r>
       <r>  -19.6527    1.0000 </r>
       <r>  -12.5929    1.0000 </r>
       <r>  -12.5164    1.0000 </r>
       <r>  -12.5157    1.0000 </r>
       <r>  -12.4678    1.0000 </r>
       <r>   -7.0329    1.0000 </r>
       <r>   -7.0329    1.0000 </r>
       <r>   -6.8087    1.0000 </r>
       <r>   -6.5956    1.0000 </r>
       <r>   -6.5955    1.0000 </r>
       <r>   -6.5954    1.0000 </r>
       <r>   -6.5954    1.0000 </r>
       <r>   -6.5241    1.0000 </r>
       <r>   -6.5234    1.0000 </r>
       <r>   -6.1596    1.0000 </r>
       <r>   -6.1596    1.0000 </r>
       <r>   -6.0760    1.0000 </r>
       <r>   -1.5317    1.0000 </r>
       <r>   -0.8530    1.0000 </r>
       <r>   -0.8521    1.0000 </r>
       <r>   -0.8508    1.0000 </r>
       <r>   -0.8499    1.0000 </r>
       <r>   -0.8394    1.0000 </r>
       <r>   -0.8384    1.0000 </r>
       <r>   -0.8185    1.0000 </r>
       <r>   -0.8183    1.0000 </r>
       <r>   -0.6184    1.0000 </r>
       <r>   -0.6183    1.0000 </r>
       <r>   -0.4433    1.0000 </r>
       <r>    5.5408    0.0000 </r>
       <r>    5.6176    0.0000 </r>
       <r>    6.0111    0.0000 </r>
       <r>    7.1335    0.0000 </r>
       <r>    7.1371    0.0000 </r>
       <r>    7.1425    0.0000 </r>
       <r>    7.3093    0.0000 </r>
       <r>    7.3130    0.0000 </r>
      </set>
      <set comment="kpoint 19">
       <r>  -19.7897    1.0000 </r>
       <r>  -19.7003    1.0000 </r>
       <r>  -19.6772    1.0000 </r>
       <r>  -19.5967    1.0000 </r>
       <r>  -12.5557    1.0000 </r>
       <r>  -12.5306    1.0000 </r>
       <r>  -12.5049    1.0000 </r>
       <r>  -12.3984    1.0000 </r>
       <r>   -6.8102    1.0000 </r>
       <r>   -6.7971    1.0000 </r>
       <r>   -6.7970    1.0000 </r>
       <r>   -6.7453    1.0000 </r>
       <r>   -6.7092    1.0000 </r>
       <r>   -6.6630    1.0000 </r>
       <r>   -6.4458    1.0000 </r>
       <r>   -6.4342    1.0000 </r>
       <r>   -6.4146    1.0000 </r>
       <r>   -6.3145    1.0000 </r>
       <r>   -6.3145    1.0000 </r>
       <r>   -6.2837    1.0000 </r>
       <r>   -1.4131    1.0000 </r>
       <r>   -1.4131    1.0000 </r>
       <r>   -1.3514    1.0000 </r>
       <r>   -1.0114    1.0000 </r>
       <r>   -0.9951    1.0000 </r>
       <r>   -0.8702    1.0000 </r>
       <r>   -0.8014    1.0000 </r>
       <r>   -0.7222    1.0000 </r>
       <r>   -0.6497    1.0000 </r>
       <r>   -0.5040    1.0000 </r>
       <r>   -0.4206    1.0000 </r>
       <r>   -0.4205    1.0000 </r>
       <r>    5.0175    0.0000 </r>
       <r>    5.1530    0.0000 </r>
       <r>    5.1530    0.0000 </r>
       <r>    6.7135    0.0000 </r>
       <r>    6.8323    0.0000 </r>
       <r>    6.8370    0.0000 </r>
       <r>    6.9348    0.0000 </r>
       <r>    7.3376    0.0000 </r>
      </set>
      <set comment="kpoint 20">
       <r>  -19.7769    1.0000 </r>
       <r>  -19.7369    1.0000 </r>
       <r>  -19.6427    1.0000 </r>
       <r>  -19.6075    1.0000 </r>
       <r>  -12.5602    1.0000 </r>
       <r>  -12.5551    1.0000 </r>
       <r>  -12.4602    1.0000 </r>
       <r>  -12.4126    1.0000 </r>
       <r>   -6.8609    1.0000 </r>
       <r>   -6.8169    1.0000 </r>
       <r>   -6.7941    1.0000 </r>
       <r>   -6.7686    1.0000 </r>
       <r>   -6.7297    1.0000 </r>
       <r>   -6.5868    1.0000 </r>
       <r>   -6.5260    1.0000 </r>
       <r>   -6.4013    1.0000 </r>
       <r>   -6.3551    1.0000 </r>
       <r>   -6.3184    1.0000 </r>
       <r>   -6.3056    1.0000 </r>
       <r>   -6.2604    1.0000 </r>
       <r>   -1.3559    1.0000 </r>
       <r>   -1.3053    1.0000 </r>
       <r>   -1.1830    1.0000 </r>
       <r>   -1.1400    1.0000 </r>
       <r>   -1.0615    1.0000 </r>
       <r>   -0.9729    1.0000 </r>
       <r>   -0.8337    1.0000 </r>
       <r>   -0.6917    1.0000 </r>
       <r>   -0.6202    1.0000 </r>
       <r>   -0.5624    1.0000 </r>
       <r>   -0.4725    1.0000 </r>
       <r>   -0.4446    1.0000 </r>
       <r>    5.2860    0.0000 </r>
       <r>    5.4200    0.0000 </r>
       <r>    5.5404    0.0000 </r>
       <r>    5.9726    0.0000 </r>
       <r>    6.2697    0.0000 </r>
       <r>    6.6445    0.0000 </r>
       <r>    6.8092    0.0000 </r>
       <r>    7.3751    0.0000 </r>
      </set>
      <set comment="kpoint 21">
       <r>  -19.7683    1.0000 </r>
       <r>  -19.7494    1.0000 </r>
       <r>  -19.6316    1.0000 </r>
       <r>  -19.6146    1.0000 </r>
       <r>  -12.5628    1.0000 </r>
       <r>  -12.5576    1.0000 </r>
       <r>  -12.4451    1.0000 </r>
       <r>  -12.4221    1.0000 </r>
       <r>   -6.8691    1.0000 </r>
       <r>   -6.8497    1.0000 </r>
       <r>   -6.8476    1.0000 </r>
       <r>   -6.7057    1.0000 </r>
       <r>   -6.6442    1.0000 </r>
       <r>   -6.6283    1.0000 </r>
       <r>   -6.5180    1.0000 </r>
       <r>   -6.4664    1.0000 </r>
       <r>   -6.3854    1.0000 </r>
       <r>   -6.2934    1.0000 </r>
       <r>   -6.2631    1.0000 </r>
       <r>   -6.2515    1.0000 </r>
       <r>   -1.2833    1.0000 </r>
       <r>   -1.2422    1.0000 </r>
       <r>   -1.2105    1.0000 </r>
       <r>   -1.1626    1.0000 </r>
       <r>   -1.0869    1.0000 </r>
       <r>   -0.9072    1.0000 </r>
       <r>   -0.9053    1.0000 </r>
       <r>   -0.8110    1.0000 </r>
       <r>   -0.5676    1.0000 </r>
       <r>   -0.5200    1.0000 </r>
       <r>   -0.4903    1.0000 </r>
       <r>   -0.4801    1.0000 </r>
       <r>    5.4012    0.0000 </r>
       <r>    5.6294    0.0000 </r>
       <r>    5.7088    0.0000 </r>
       <r>    5.8740    0.0000 </r>
       <r>    6.0760    0.0000 </r>
       <r>    6.2193    0.0000 </r>
       <r>    6.9228    0.0000 </r>
       <r>    7.1446    0.0000 </r>
      </set>
      <set comment="kpoint 22">
       <r>  -19.7865    1.0000 </r>
       <r>  -19.7149    1.0000 </r>
       <r>  -19.6632    1.0000 </r>
       <r>  -19.5993    1.0000 </r>
       <r>  -12.5576    1.0000 </r>
       <r>  -12.5411    1.0000 </r>
       <r>  -12.4888    1.0000 </r>
       <r>  -12.4015    1.0000 </r>
       <r>   -6.8389    1.0000 </r>
       <r>   -6.8388    1.0000 </r>
       <r>   -6.8120    1.0000 </r>
       <r>   -6.7197    1.0000 </r>
       <r>   -6.6405    1.0000 </r>
       <r>   -6.5900    1.0000 </r>
       <r>   -6.5466    1.0000 </r>
       <r>   -6.5077    1.0000 </r>
       <r>   -6.3703    1.0000 </r>
       <r>   -6.3096    1.0000 </r>
       <r>   -6.2769    1.0000 </r>
       <r>   -6.2765    1.0000 </r>
       <r>   -1.3721    1.0000 </r>
       <r>   -1.3706    1.0000 </r>
       <r>   -1.3396    1.0000 </r>
       <r>   -1.0348    1.0000 </r>
       <r>   -1.0110    1.0000 </r>
       <r>   -0.9805    1.0000 </r>
       <r>   -0.7298    1.0000 </r>
       <r>   -0.7007    1.0000 </r>
       <r>   -0.6311    1.0000 </r>
       <r>   -0.5794    1.0000 </r>
       <r>   -0.4234    1.0000 </r>
       <r>   -0.4234    1.0000 </r>
       <r>    5.1073    0.0000 </r>
       <r>    5.1234    0.0000 </r>
       <r>    5.3438    0.0000 </r>
       <r>    6.2783    0.0000 </r>
       <r>    6.7172    0.0000 </r>
       <r>    6.8974    0.0000 </r>
       <r>    7.1056    0.0000 </r>
       <r>    7.4595    0.0000 </r>
      </set>
      <set comment="kpoint 23">
       <r>  -19.7753    1.0000 </r>
       <r>  -19.7029    1.0000 </r>
       <r>  -19.6733    1.0000 </r>
       <r>  -19.6088    1.0000 </r>
       <r>  -12.5603    1.0000 </r>
       <r>  -12.5386    1.0000 </r>
       <r>  -12.5050    1.0000 </r>
       <r>  -12.4141    1.0000 </r>
       <r>   -6.8690    1.0000 </r>
       <r>   -6.8619    1.0000 </r>
       <r>   -6.8100    1.0000 </r>
       <r>   -6.7748    1.0000 </r>
       <r>   -6.6841    1.0000 </r>
       <r>   -6.6475    1.0000 </r>
       <r>   -6.5252    1.0000 </r>
       <r>   -6.4210    1.0000 </r>
       <r>   -6.3293    1.0000 </r>
       <r>   -6.3023    1.0000 </r>
       <r>   -6.2603    1.0000 </r>
       <r>   -6.2373    1.0000 </r>
       <r>   -1.3354    1.0000 </r>
       <r>   -1.2932    1.0000 </r>
       <r>   -1.1705    1.0000 </r>
       <r>   -1.0963    1.0000 </r>
       <r>   -1.0732    1.0000 </r>
       <r>   -0.9029    1.0000 </r>
       <r>   -0.7381    1.0000 </r>
       <r>   -0.7211    1.0000 </r>
       <r>   -0.6073    1.0000 </r>
       <r>   -0.5648    1.0000 </r>
       <r>   -0.4717    1.0000 </r>
       <r>   -0.4518    1.0000 </r>
       <r>    5.2942    0.0000 </r>
       <r>    5.4443    0.0000 </r>
       <r>    5.6288    0.0000 </r>
       <r>    6.2054    0.0000 </r>
       <r>    6.5702    0.0000 </r>
       <r>    6.6978    0.0000 </r>
       <r>    6.7137    0.0000 </r>
       <r>    7.3310    0.0000 </r>
      </set>
      <set comment="kpoint 24">
       <r>  -19.7622    1.0000 </r>
       <r>  -19.7342    1.0000 </r>
       <r>  -19.6443    1.0000 </r>
       <r>  -19.6196    1.0000 </r>
       <r>  -12.5653    1.0000 </r>
       <r>  -12.5594    1.0000 </r>
       <r>  -12.4633    1.0000 </r>
       <r>  -12.4284    1.0000 </r>
       <r>   -6.9196    1.0000 </r>
       <r>   -6.8964    1.0000 </r>
       <r>   -6.8482    1.0000 </r>
       <r>   -6.7673    1.0000 </r>
       <r>   -6.6496    1.0000 </r>
       <r>   -6.5599    1.0000 </r>
       <r>   -6.5178    1.0000 </r>
       <r>   -6.4421    1.0000 </r>
       <r>   -6.3852    1.0000 </r>
       <r>   -6.2875    1.0000 </r>
       <r>   -6.2389    1.0000 </r>
       <r>   -6.2043    1.0000 </r>
       <r>   -1.2345    1.0000 </r>
       <r>   -1.1936    1.0000 </r>
       <r>   -1.1102    1.0000 </r>
       <r>   -1.0780    1.0000 </r>
       <r>   -1.0746    1.0000 </r>
       <r>   -1.0184    1.0000 </r>
       <r>   -0.9075    1.0000 </r>
       <r>   -0.7443    1.0000 </r>
       <r>   -0.6053    1.0000 </r>
       <r>   -0.5247    1.0000 </r>
       <r>   -0.5082    1.0000 </r>
       <r>   -0.4844    1.0000 </r>
       <r>    5.4363    0.0000 </r>
       <r>    5.7952    0.0000 </r>
       <r>    5.8145    0.0000 </r>
       <r>    6.1295    0.0000 </r>
       <r>    6.3598    0.0000 </r>
       <r>    6.6384    0.0000 </r>
       <r>    6.8767    0.0000 </r>
       <r>    6.9908    0.0000 </r>
      </set>
      <set comment="kpoint 25">
       <r>  -19.7605    1.0000 </r>
       <r>  -19.7366    1.0000 </r>
       <r>  -19.6421    1.0000 </r>
       <r>  -19.6211    1.0000 </r>
       <r>  -12.5653    1.0000 </r>
       <r>  -12.5608    1.0000 </r>
       <r>  -12.4595    1.0000 </r>
       <r>  -12.4307    1.0000 </r>
       <r>   -6.9213    1.0000 </r>
       <r>   -6.8973    1.0000 </r>
       <r>   -6.8318    1.0000 </r>
       <r>   -6.7937    1.0000 </r>
       <r>   -6.6429    1.0000 </r>
       <r>   -6.5639    1.0000 </r>
       <r>   -6.5215    1.0000 </r>
       <r>   -6.4371    1.0000 </r>
       <r>   -6.3614    1.0000 </r>
       <r>   -6.3014    1.0000 </r>
       <r>   -6.2363    1.0000 </r>
       <r>   -6.2080    1.0000 </r>
       <r>   -1.2340    1.0000 </r>
       <r>   -1.1882    1.0000 </r>
       <r>   -1.1141    1.0000 </r>
       <r>   -1.0808    1.0000 </r>
       <r>   -1.0748    1.0000 </r>
       <r>   -0.9951    1.0000 </r>
       <r>   -0.9133    1.0000 </r>
       <r>   -0.7643    1.0000 </r>
       <r>   -0.5953    1.0000 </r>
       <r>   -0.5239    1.0000 </r>
       <r>   -0.5170    1.0000 </r>
       <r>   -0.4863    1.0000 </r>
       <r>    5.4728    0.0000 </r>
       <r>    5.7841    0.0000 </r>
       <r>    5.8313    0.0000 </r>
       <r>    6.1556    0.0000 </r>
       <r>    6.3209    0.0000 </r>
       <r>    6.6304    0.0000 </r>
       <r>    6.8394    0.0000 </r>
       <r>    6.9692    0.0000 </r>
      </set>
      <set comment="kpoint 26">
       <r>  -19.7747    1.0000 </r>
       <r>  -19.7058    1.0000 </r>
       <r>  -19.6705    1.0000 </r>
       <r>  -19.6094    1.0000 </r>
       <r>  -12.5602    1.0000 </r>
       <r>  -12.5421    1.0000 </r>
       <r>  -12.5007    1.0000 </r>
       <r>  -12.4149    1.0000 </r>
       <r>   -6.8739    1.0000 </r>
       <r>   -6.8564    1.0000 </r>
       <r>   -6.8108    1.0000 </r>
       <r>   -6.7678    1.0000 </r>
       <r>   -6.6857    1.0000 </r>
       <r>   -6.6803    1.0000 </r>
       <r>   -6.4934    1.0000 </r>
       <r>   -6.4207    1.0000 </r>
       <r>   -6.3246    1.0000 </r>
       <r>   -6.3044    1.0000 </r>
       <r>   -6.2628    1.0000 </r>
       <r>   -6.2414    1.0000 </r>
       <r>   -1.3318    1.0000 </r>
       <r>   -1.2920    1.0000 </r>
       <r>   -1.1624    1.0000 </r>
       <r>   -1.1079    1.0000 </r>
       <r>   -1.0663    1.0000 </r>
       <r>   -0.9077    1.0000 </r>
       <r>   -0.7300    1.0000 </r>
       <r>   -0.7235    1.0000 </r>
       <r>   -0.6164    1.0000 </r>
       <r>   -0.5614    1.0000 </r>
       <r>   -0.4737    1.0000 </r>
       <r>   -0.4567    1.0000 </r>
       <r>    5.3137    0.0000 </r>
       <r>    5.4577    0.0000 </r>
       <r>    5.6364    0.0000 </r>
       <r>    6.2066    0.0000 </r>
       <r>    6.5446    0.0000 </r>
       <r>    6.6549    0.0000 </r>
       <r>    6.7204    0.0000 </r>
       <r>    7.3132    0.0000 </r>
      </set>
      <set comment="kpoint 27">
       <r>  -19.7509    1.0000 </r>
       <r>  -19.6968    1.0000 </r>
       <r>  -19.6779    1.0000 </r>
       <r>  -19.6293    1.0000 </r>
       <r>  -12.5652    1.0000 </r>
       <r>  -12.5354    1.0000 </r>
       <r>  -12.5182    1.0000 </r>
       <r>  -12.4419    1.0000 </r>
       <r>   -6.9183    1.0000 </r>
       <r>   -6.9134    1.0000 </r>
       <r>   -6.8419    1.0000 </r>
       <r>   -6.8270    1.0000 </r>
       <r>   -6.6161    1.0000 </r>
       <r>   -6.5898    1.0000 </r>
       <r>   -6.5787    1.0000 </r>
       <r>   -6.4978    1.0000 </r>
       <r>   -6.3165    1.0000 </r>
       <r>   -6.2628    1.0000 </r>
       <r>   -6.2170    1.0000 </r>
       <r>   -6.1349    1.0000 </r>
       <r>   -1.1735    1.0000 </r>
       <r>   -1.1404    1.0000 </r>
       <r>   -1.1367    1.0000 </r>
       <r>   -1.1147    1.0000 </r>
       <r>   -1.0090    1.0000 </r>
       <r>   -0.8880    1.0000 </r>
       <r>   -0.8734    1.0000 </r>
       <r>   -0.7117    1.0000 </r>
       <r>   -0.5474    1.0000 </r>
       <r>   -0.5393    1.0000 </r>
       <r>   -0.5249    1.0000 </r>
       <r>   -0.5028    1.0000 </r>
[...]
       <r>   -0.9190    1.0000 </r>
       <r>   -0.8934    1.0000 </r>
       <r>   -0.7304    1.0000 </r>
       <r>   -0.6756    1.0000 </r>
       <r>   -0.6203    1.0000 </r>
       <r>   -0.5984    1.0000 </r>
       <r>   -0.5790    1.0000 </r>
       <r>   -0.5680    1.0000 </r>
       <r>    5.9184    0.0000 </r>
       <r>    6.0057    0.0000 </r>
       <r>    6.0394    0.0000 </r>
       <r>    6.3054    0.0000 </r>
       <r>    6.6682    0.0000 </r>
       <r>    6.7057    0.0000 </r>
       <r>    6.7465    0.0000 </r>
       <r>    6.7910    0.0000 </r>
      </set>
      <set comment="kpoint 145">
       <r>  -19.7326    1.0000 </r>
       <r>  -19.6932    1.0000 </r>
       <r>  -19.6816    1.0000 </r>
       <r>  -19.6446    1.0000 </r>
       <r>  -12.5682    1.0000 </r>
       <r>  -12.5318    1.0000 </r>
       <r>  -12.5211    1.0000 </r>
       <r>  -12.4630    1.0000 </r>
       <r>   -6.9522    1.0000 </r>
       <r>   -6.8921    1.0000 </r>
       <r>   -6.8573    1.0000 </r>
       <r>   -6.8467    1.0000 </r>
       <r>   -6.6973    1.0000 </r>
       <r>   -6.6095    1.0000 </r>
       <r>   -6.5969    1.0000 </r>
       <r>   -6.3318    1.0000 </r>
       <r>   -6.3239    1.0000 </r>
       <r>   -6.2465    1.0000 </r>
       <r>   -6.1859    1.0000 </r>
       <r>   -6.1706    1.0000 </r>
       <r>   -1.1890    1.0000 </r>
       <r>   -1.1260    1.0000 </r>
       <r>   -1.1124    1.0000 </r>
       <r>   -1.0384    1.0000 </r>
       <r>   -1.0238    1.0000 </r>
       <r>   -0.8433    1.0000 </r>
       <r>   -0.7455    1.0000 </r>
       <r>   -0.6991    1.0000 </r>
       <r>   -0.5978    1.0000 </r>
       <r>   -0.5468    1.0000 </r>
       <r>   -0.5408    1.0000 </r>
       <r>   -0.5383    1.0000 </r>
       <r>    5.8158    0.0000 </r>
       <r>    6.0669    0.0000 </r>
       <r>    6.3634    0.0000 </r>
       <r>    6.4027    0.0000 </r>
       <r>    6.4851    0.0000 </r>
       <r>    6.5556    0.0000 </r>
       <r>    6.5814    0.0000 </r>
       <r>    6.6613    0.0000 </r>
      </set>
      <set comment="kpoint 146">
       <r>  -19.7325    1.0000 </r>
       <r>  -19.6976    1.0000 </r>
       <r>  -19.6759    1.0000 </r>
       <r>  -19.6461    1.0000 </r>
       <r>  -12.5565    1.0000 </r>
       <r>  -12.5517    1.0000 </r>
       <r>  -12.5089    1.0000 </r>
       <r>  -12.4674    1.0000 </r>
       <r>   -6.9458    1.0000 </r>
       <r>   -6.8924    1.0000 </r>
       <r>   -6.8757    1.0000 </r>
       <r>   -6.7892    1.0000 </r>
       <r>   -6.6989    1.0000 </r>
       <r>   -6.6299    1.0000 </r>
       <r>   -6.5050    1.0000 </r>
       <r>   -6.4478    1.0000 </r>
       <r>   -6.4291    1.0000 </r>
       <r>   -6.2259    1.0000 </r>
       <r>   -6.1667    1.0000 </r>
       <r>   -6.1049    1.0000 </r>
       <r>   -1.2808    1.0000 </r>
       <r>   -1.1178    1.0000 </r>
       <r>   -1.0810    1.0000 </r>
       <r>   -1.0285    1.0000 </r>
       <r>   -1.0186    1.0000 </r>
       <r>   -0.7679    1.0000 </r>
       <r>   -0.7490    1.0000 </r>
       <r>   -0.7309    1.0000 </r>
       <r>   -0.6242    1.0000 </r>
       <r>   -0.5516    1.0000 </r>
       <r>   -0.5378    1.0000 </r>
       <r>   -0.4993    1.0000 </r>
       <r>    5.8283    0.0000 </r>
       <r>    5.8899    0.0000 </r>
       <r>    6.1630    0.0000 </r>
       <r>    6.2191    0.0000 </r>
       <r>    6.4000    0.0000 </r>
       <r>    6.7411    0.0000 </r>
       <r>    6.8244    0.0000 </r>
       <r>    7.0162    0.0000 </r>
      </set>
     </set>
    </set>
   </array>
  </eigenvalues>
  <separator name="orbital magnetization" >
   <v name="MAGDIPOLOUT">      0.00000000      0.00000000      0.00000000</v>
  </separator>
  <dos>
   <i name="efermi">     -0.28978915 </i>
   <total>
    <array>
     <dimension dim="1">gridpoints</dimension>
     <dimension dim="2">spin</dimension>
     <field>energy</field>
     <field>total</field>
     <field>integrated</field>
     <set>
      <set comment="spin 1">
       <r>   -21.1704     0.0000     0.0000 </r>
       <r>   -21.0696     0.0000     0.0000 </r>
       <r>   -20.9689     0.0000     0.0000 </r>
       <r>   -20.8681     0.0000     0.0000 </r>
       <r>   -20.7674     0.0000     0.0000 </r>
       <r>   -20.6666     0.0000     0.0000 </r>
       <r>   -20.5659     0.0000     0.0000 </r>
       <r>   -20.4651     0.0000     0.0000 </r>
       <r>   -20.3644     0.0000     0.0000 </r>
       <r>   -20.2636     0.0000     0.0000 </r>
       <r>   -20.1629     0.0000     0.0000 </r>
       <r>   -20.0621     0.0000     0.0000 </r>
       <r>   -19.9614     0.0000     0.0000 </r>
       <r>   -19.8606     0.0000     0.0000 </r>
       <r>   -19.7599     4.5140     0.4548 </r>
       <r>   -19.6591    49.0439     5.9205 </r>
       <r>   -19.5584     9.1664     8.0000 </r>
       <r>   -19.4576     0.0000     8.0000 </r>
       <r>   -19.3569     0.0000     8.0000 </r>
       <r>   -19.2561     0.0000     8.0000 </r>
       <r>   -19.1554     0.0000     8.0000 </r>
       <r>   -19.0546     0.0000     8.0000 </r>
       <r>   -18.9539     0.0000     8.0000 </r>
       <r>   -18.8531     0.0000     8.0000 </r>
       <r>   -18.7524     0.0000     8.0000 </r>
       <r>   -18.6516     0.0000     8.0000 </r>
       <r>   -18.5509     0.0000     8.0000 </r>
       <r>   -18.4501     0.0000     8.0000 </r>
       <r>   -18.3494     0.0000     8.0000 </r>
       <r>   -18.2486     0.0000     8.0000 </r>
       <r>   -18.1479     0.0000     8.0000 </r>
       <r>   -18.0471     0.0000     8.0000 </r>
       <r>   -17.9463     0.0000     8.0000 </r>
       <r>   -17.8456     0.0000     8.0000 </r>
       <r>   -17.7448     0.0000     8.0000 </r>
       <r>   -17.6441     0.0000     8.0000 </r>
       <r>   -17.5433     0.0000     8.0000 </r>
       <r>   -17.4426     0.0000     8.0000 </r>
       <r>   -17.3418     0.0000     8.0000 </r>
       <r>   -17.2411     0.0000     8.0000 </r>
       <r>   -17.1403     0.0000     8.0000 </r>
       <r>   -17.0396     0.0000     8.0000 </r>
       <r>   -16.9388     0.0000     8.0000 </r>
       <r>   -16.8381     0.0000     8.0000 </r>
       <r>   -16.7373     0.0000     8.0000 </r>
       <r>   -16.6366     0.0000     8.0000 </r>
       <r>   -16.5358     0.0000     8.0000 </r>
       <r>   -16.4351     0.0000     8.0000 </r>
       <r>   -16.3343     0.0000     8.0000 </r>
       <r>   -16.2336     0.0000     8.0000 </r>
       <r>   -16.1328     0.0000     8.0000 </r>
       <r>   -16.0321     0.0000     8.0000 </r>
       <r>   -15.9313     0.0000     8.0000 </r>
       <r>   -15.8306     0.0000     8.0000 </r>
       <r>   -15.7298     0.0000     8.0000 </r>
       <r>   -15.6291     0.0000     8.0000 </r>
       <r>   -15.5283     0.0000     8.0000 </r>
       <r>   -15.4276     0.0000     8.0000 </r>
       <r>   -15.3268     0.0000     8.0000 </r>
       <r>   -15.2261     0.0000     8.0000 </r>
       <r>   -15.1253     0.0000     8.0000 </r>
       <r>   -15.0246     0.0000     8.0000 </r>
       <r>   -14.9238     0.0000     8.0000 </r>
       <r>   -14.8231     0.0000     8.0000 </r>
       <r>   -14.7223     0.0000     8.0000 </r>
       <r>   -14.6216     0.0000     8.0000 </r>
       <r>   -14.5208     0.0000     8.0000 </r>
       <r>   -14.4201     0.0000     8.0000 </r>
       <r>   -14.3193     0.0000     8.0000 </r>
       <r>   -14.2186     0.0000     8.0000 </r>
       <r>   -14.1178     0.0000     8.0000 </r>
       <r>   -14.0171     0.0000     8.0000 </r>
       <r>   -13.9163     0.0000     8.0000 </r>
       <r>   -13.8156     0.0000     8.0000 </r>
       <r>   -13.7148     0.0000     8.0000 </r>
       <r>   -13.6141     0.0000     8.0000 </r>
       <r>   -13.5133     0.0000     8.0000 </r>
       <r>   -13.4126     0.0000     8.0000 </r>
       <r>   -13.3118     0.0000     8.0000 </r>
       <r>   -13.2111     0.0000     8.0000 </r>
       <r>   -13.1103     0.0000     8.0000 </r>
       <r>   -13.0096     0.0000     8.0000 </r>
       <r>   -12.9088     0.0000     8.0000 </r>
       <r>   -12.8081     0.0000     8.0000 </r>
       <r>   -12.7073     0.0000     8.0000 </r>
       <r>   -12.6066     0.0071     8.0007 </r>
       <r>   -12.5058    48.1377    12.9264 </r>
       <r>   -12.4051    20.8535    15.9068 </r>
       <r>   -12.3043     0.0000    16.0000 </r>
       <r>   -12.2036     0.0000    16.0000 </r>
       <r>   -12.1028     0.0000    16.0000 </r>
       <r>   -12.0021     0.0000    16.0000 </r>
       <r>   -11.9013     0.0000    16.0000 </r>
       <r>   -11.8006     0.0000    16.0000 </r>
       <r>   -11.6998     0.0000    16.0000 </r>
       <r>   -11.5991     0.0000    16.0000 </r>
       <r>   -11.4983     0.0000    16.0000 </r>
       <r>   -11.3976     0.0000    16.0000 </r>
       <r>   -11.2968     0.0000    16.0000 </r>
       <r>   -11.1961     0.0000    16.0000 </r>
       <r>   -11.0953     0.0000    16.0000 </r>
       <r>   -10.9946     0.0000    16.0000 </r>
       <r>   -10.8938     0.0000    16.0000 </r>
       <r>   -10.7930     0.0000    16.0000 </r>
       <r>   -10.6923     0.0000    16.0000 </r>
       <r>   -10.5915     0.0000    16.0000 </r>
       <r>   -10.4908     0.0000    16.0000 </r>
       <r>   -10.3900     0.0000    16.0000 </r>
       <r>   -10.2893     0.0000    16.0000 </r>
       <r>   -10.1885     0.0000    16.0000 </r>
       <r>   -10.0878     0.0000    16.0000 </r>
       <r>    -9.9870     0.0000    16.0000 </r>
       <r>    -9.8863     0.0000    16.0000 </r>
       <r>    -9.7855     0.0000    16.0000 </r>
       <r>    -9.6848     0.0000    16.0000 </r>
       <r>    -9.5840     0.0000    16.0000 </r>
       <r>    -9.4833     0.0000    16.0000 </r>
       <r>    -9.3825     0.0000    16.0000 </r>
       <r>    -9.2818     0.0000    16.0000 </r>
       <r>    -9.1810     0.0000    16.0000 </r>
       <r>    -9.0803     0.0000    16.0000 </r>
       <r>    -8.9795     0.0000    16.0000 </r>
       <r>    -8.8788     0.0000    16.0000 </r>
       <r>    -8.7780     0.0000    16.0000 </r>
       <r>    -8.6773     0.0000    16.0000 </r>
       <r>    -8.5765     0.0000    16.0000 </r>
       <r>    -8.4758     0.0000    16.0000 </r>
       <r>    -8.3750     0.0000    16.0000 </r>
       <r>    -8.2743     0.0000    16.0000 </r>
       <r>    -8.1735     0.0000    16.0000 </r>
       <r>    -8.0728     0.0000    16.0000 </r>
       <r>    -7.9720     0.0000    16.0000 </r>
       <r>    -7.8713     0.0000    16.0000 </r>
       <r>    -7.7705     0.0000    16.0000 </r>
       <r>    -7.6698     0.0000    16.0000 </r>
       <r>    -7.5690     0.0000    16.0000 </r>
       <r>    -7.4683     0.0000    16.0000 </r>
       <r>    -7.3675     0.0000    16.0000 </r>
       <r>    -7.2668     0.0000    16.0000 </r>
       <r>    -7.1660     0.0000    16.0000 </r>
       <r>    -7.0653     0.0000    16.0000 </r>
       <r>    -6.9645     7.5583    16.7615 </r>
       <r>    -6.8638    29.1604    20.0213 </r>
       <r>    -6.7630    27.7123    23.7088 </r>
       <r>    -6.6623    17.6101    26.0799 </r>
       <r>    -6.5615    16.4980    28.2317 </r>
       <r>    -6.4608    15.5848    30.2230 </r>
       <r>    -6.3600    16.6411    32.3989 </r>
       <r>    -6.2593    23.8343    35.3459 </r>
       <r>    -6.1585    26.8297    38.7658 </r>
       <r>    -6.0578     6.9610    40.0000 </r>
       <r>    -5.9570     0.0000    40.0000 </r>
       <r>    -5.8563     0.0000    40.0000 </r>
       <r>    -5.7555     0.0000    40.0000 </r>
       <r>    -5.6548     0.0000    40.0000 </r>
       <r>    -5.5540     0.0000    40.0000 </r>
       <r>    -5.4533     0.0000    40.0000 </r>
       <r>    -5.3525     0.0000    40.0000 </r>
       <r>    -5.2518     0.0000    40.0000 </r>
       <r>    -5.1510     0.0000    40.0000 </r>
       <r>    -5.0503     0.0000    40.0000 </r>
       <r>    -4.9495     0.0000    40.0000 </r>
       <r>    -4.8488     0.0000    40.0000 </r>
       <r>    -4.7480     0.0000    40.0000 </r>
       <r>    -4.6473     0.0000    40.0000 </r>
       <r>    -4.5465     0.0000    40.0000 </r>
       <r>    -4.4458     0.0000    40.0000 </r>
       <r>    -4.3450     0.0000    40.0000 </r>
       <r>    -4.2443     0.0000    40.0000 </r>
       <r>    -4.1435     0.0000    40.0000 </r>
       <r>    -4.0428     0.0000    40.0000 </r>
       <r>    -3.9420     0.0000    40.0000 </r>
       <r>    -3.8413     0.0000    40.0000 </r>
       <r>    -3.7405     0.0000    40.0000 </r>
       <r>    -3.6397     0.0000    40.0000 </r>
       <r>    -3.5390     0.0000    40.0000 </r>
       <r>    -3.4382     0.0000    40.0000 </r>
       <r>    -3.3375     0.0000    40.0000 </r>
       <r>    -3.2367     0.0000    40.0000 </r>
       <r>    -3.1360     0.0000    40.0000 </r>
       <r>    -3.0352     0.0000    40.0000 </r>
       <r>    -2.9345     0.0000    40.0000 </r>
       <r>    -2.8337     0.0000    40.0000 </r>
       <r>    -2.7330     0.0000    40.0000 </r>
       <r>    -2.6322     0.0000    40.0000 </r>
       <r>    -2.5315     0.0000    40.0000 </r>
       <r>    -2.4307     0.0000    40.0000 </r>
       <r>    -2.3300     0.0000    40.0000 </r>
       <r>    -2.2292     0.0000    40.0000 </r>
       <r>    -2.1285     0.0000    40.0000 </r>
       <r>    -2.0277     0.0000    40.0000 </r>
       <r>    -1.9270     0.0000    40.0000 </r>
       <r>    -1.8262     0.0000    40.0000 </r>
       <r>    -1.7255     0.0000    40.0000 </r>
       <r>    -1.6247     0.0000    40.0000 </r>
       <r>    -1.5240     0.0725    40.0073 </r>
       <r>    -1.4232     1.4106    40.1768 </r>
       <r>    -1.3225     6.1054    40.8791 </r>
       <r>    -1.2217    10.4082    42.0626 </r>
       <r>    -1.1210    15.6558    43.9802 </r>
       <r>    -1.0202    30.1593    47.5665 </r>
       <r>    -0.9195    15.1544    49.7769 </r>
       <r>    -0.8187    17.5689    52.0618 </r>
       <r>    -0.7180    19.4279    54.5130 </r>
       <r>    -0.6172    20.7995    57.0956 </r>
       <r>    -0.5165    44.2542    62.2713 </r>
       <r>    -0.4157    10.2362    63.9481 </r>
       <r>    -0.3150     0.0000    64.0000 </r>
       <r>    -0.2142     0.0000    64.0000 </r>
       <r>    -0.1135     0.0000    64.0000 </r>
       <r>    -0.0127     0.0000    64.0000 </r>
       <r>     0.0880     0.0000    64.0000 </r>
       <r>     0.1888     0.0000    64.0000 </r>
       <r>     0.2895     0.0000    64.0000 </r>
       <r>     0.3903     0.0000    64.0000 </r>
       <r>     0.4910     0.0000    64.0000 </r>
       <r>     0.5918     0.0000    64.0000 </r>
       <r>     0.6925     0.0000    64.0000 </r>
       <r>     0.7933     0.0000    64.0000 </r>
       <r>     0.8940     0.0000    64.0000 </r>
       <r>     0.9948     0.0000    64.0000 </r>
       <r>     1.0955     0.0000    64.0000 </r>
       <r>     1.1963     0.0000    64.0000 </r>
       <r>     1.2970     0.0000    64.0000 </r>
       <r>     1.3978     0.0000    64.0000 </r>
       <r>     1.4985     0.0000    64.0000 </r>
       <r>     1.5993     0.0000    64.0000 </r>
       <r>     1.7000     0.0000    64.0000 </r>
       <r>     1.8008     0.0000    64.0000 </r>
       <r>     1.9015     0.0000    64.0000 </r>
       <r>     2.0023     0.0000    64.0000 </r>
       <r>     2.1030     0.0000    64.0000 </r>
       <r>     2.2038     0.0000    64.0000 </r>
       <r>     2.3045     0.0000    64.0000 </r>
       <r>     2.4053     0.0000    64.0000 </r>
       <r>     2.5060     0.0000    64.0000 </r>
       <r>     2.6068     0.0000    64.0000 </r>
       <r>     2.7075     0.0000    64.0000 </r>
       <r>     2.8083     0.0000    64.0000 </r>
       <r>     2.9090     0.0000    64.0000 </r>
       <r>     3.0098     0.0000    64.0000 </r>
       <r>     3.1105     0.0000    64.0000 </r>
       <r>     3.2113     0.0000    64.0000 </r>
       <r>     3.3120     0.0000    64.0000 </r>
       <r>     3.4128     0.0000    64.0000 </r>
       <r>     3.5135     0.0000    64.0000 </r>
       <r>     3.6143     0.0000    64.0000 </r>
       <r>     3.7151     0.0000    64.0000 </r>
       <r>     3.8158     0.0000    64.0000 </r>
       <r>     3.9166     0.0000    64.0000 </r>
       <r>     4.0173     0.0000    64.0000 </r>
       <r>     4.1181     0.0000    64.0000 </r>
       <r>     4.2188     0.0000    64.0000 </r>
       <r>     4.3196     0.0000    64.0000 </r>
       <r>     4.4203     0.0000    64.0000 </r>
       <r>     4.5211     0.0000    64.0000 </r>
       <r>     4.6218     0.0000    64.0000 </r>
       <r>     4.7226     0.0000    64.0000 </r>
       <r>     4.8233     0.0689    64.0069 </r>
       <r>     4.9241     0.0000    64.0069 </r>
       <r>     5.0248     0.3179    64.0390 </r>
       <r>     5.1256     0.7729    64.1265 </r>
       <r>     5.2263     1.2443    64.2573 </r>
       <r>     5.3271     0.9994    64.3993 </r>
       <r>     5.4278     2.0654    64.6317 </r>
       <r>     5.5286     1.1920    64.7798 </r>
       <r>     5.6293     3.5008    65.1583 </r>
       <r>     5.7301     4.6774    65.7282 </r>
       <r>     5.8308     5.6176    66.4202 </r>
       <r>     5.9316     6.4361    67.2248 </r>
       <r>     6.0323     8.7577    68.4310 </r>
       <r>     6.1331     8.6171    69.5210 </r>
       <r>     6.2338     8.2687    70.5831 </r>
       <r>     6.3346     9.0480    71.7172 </r>
       <r>     6.4353     7.2845    72.6229 </r>
       <r>     6.5361     8.1751    73.6431 </r>
       <r>     6.6368     8.7409    74.7557 </r>
       <r>     6.7376     9.4399    75.9789 </r>
       <r>     6.8383     9.7870    77.2916 </r>
       <r>     6.9391     8.6221    78.3687 </r>
       <r>     7.0398     3.8864    78.9610 </r>
       <r>     7.1406     4.5214    79.4972 </r>
       <r>     7.2413     1.9604    79.7739 </r>
       <r>     7.3421     0.8576    79.8711 </r>
       <r>     7.4428     0.7070    79.9601 </r>
       <r>     7.5436     0.0000    79.9861 </r>
       <r>     7.6443     0.0000    79.9861 </r>
       <r>     7.7451     0.1379    80.0000 </r>
       <r>     7.8458     0.0000    80.0000 </r>
       <r>     7.9466     0.0000    80.0000 </r>
       <r>     8.0473     0.0000    80.0000 </r>
       <r>     8.1481     0.0000    80.0000 </r>
       <r>     8.2488     0.0000    80.0000 </r>
       <r>     8.3496     0.0000    80.0000 </r>
       <r>     8.4503     0.0000    80.0000 </r>
       <r>     8.5511     0.0000    80.0000 </r>
       <r>     8.6518     0.0000    80.0000 </r>
       <r>     8.7526     0.0000    80.0000 </r>
       <r>     8.8533     0.0000    80.0000 </r>
       <r>     8.9541     0.0000    80.0000 </r>
       <r>     9.0548     0.0000    80.0000 </r>
      </set>
     </set>
    </array>
   </total>
  </dos>
 </calculation>
 <structure name="finalpos" >
  <crystal>
   <varray name="basis" >
    <v>       4.14369834       4.14369834       8.28739668 </v>
    <v>       4.14369834      -4.14369834       0.00000000 </v>
    <v>       0.00000000       4.14369834      -4.14369834 </v>
   </varray>
   <i name="volume">    284.59311253 </i>
   <varray name="rec_basis" >
    <v>       0.06033258       0.06033258       0.06033258 </v>
    <v>       0.18099773      -0.06033258      -0.06033258 </v>
    <v>       0.12066515       0.12066515      -0.12066515 </v>
   </varray>
  </crystal>
  <varray name="positions" >
   <v>       0.00000000       0.00000000       0.00000000 </v>
   <v>       0.25000000       0.75000000       0.50000000 </v>
   <v>       0.50000000       0.50000000       0.00000000 </v>
   <v>       0.75000000       0.25000000       0.50000000 </v>
   <v>       0.37598523       0.12500000       0.25000000 </v>
   <v>       0.62500000       0.87500000       0.75000000 </v>
   <v>       0.87500000       0.62500000       0.25000000 </v>
   <v>       0.12500000       0.37500000       0.75000000 </v>
  </varray>
 </structure>
</modeling>
