phonopy:
  version: "2.33.3"
  frequency_unit_conversion_factor: 15.633302
  symmetry_tolerance: 1.00000e-05
  configuration:
    create_force_constants: "True"
    dim: "4 0 0 0 4 0 0 0 4"

physical_unit:
  atomic_mass: "AMU"
  length: "angstrom"
  force_constants: "eV/angstrom^2"

space_group:
  type: "Fd-3m"
  number: 227
  Hall_symbol: "F 4d 2 3 -1d"

supercell_matrix:
- [   4,   0,   0 ]
- [   0,   4,   0 ]
- [   0,   0,   4 ]

primitive_cell:
  lattice:
  - [     0.000000000000000,     2.721851186500000,     2.721851186500000 ] # a
  - [     2.721851186500000,     0.000000000000000,     2.721851186500000 ] # b
  - [     2.721851186500000,     2.721851186500000,     0.000000000000000 ] # c
  points:
  - symbol: Si # 1
    coordinates: [  0.000000000000000,  0.000000000000000,  0.000000000000000 ]
    mass: 28.085500
  - symbol: Si # 2
    coordinates: [  0.250000000000000,  0.250000000000000,  0.250000000000000 ]
    mass: 28.085500
  reciprocal_lattice: # without 2pi
  - [    -0.183698507280607,     0.183698507280607,     0.183698507280607 ] # a*
  - [     0.183698507280607,    -0.183698507280607,     0.183698507280607 ] # b*
  - [     0.183698507280607,     0.183698507280607,    -0.183698507280607 ] # c*

unit_cell:
  lattice:
  - [     0.000000000000000,     2.721851186500000,     2.721851186500000 ] # a
  - [     2.721851186500000,     0.000000000000000,     2.721851186500000 ] # b
  - [     2.721851186500000,     2.721851186500000,     0.000000000000000 ] # c
  points:
  - symbol: Si # 1
    coordinates: [  0.000000000000000,  0.000000000000000,  0.000000000000000 ]
    mass: 28.085500
    reduced_to: 1
  - symbol: Si # 2
    coordinates: [  0.250000000000000,  0.250000000000000,  0.250000000000000 ]
    mass: 28.085500
    reduced_to: 2

supercell:
  lattice:
  - [     0.000000000000000,    10.887404746000000,    10.887404746000000 ] # a
  - [    10.887404746000000,     0.000000000000000,    10.887404746000000 ] # b
  - [    10.887404746000000,    10.887404746000000,     0.000000000000000 ] # c
  points:
  - symbol: Si # 1
    coordinates: [  0.000000000000000,  0.000000000000000,  0.000000000000000 ]
    mass: 28.085500
    reduced_to: 1
  - symbol: Si # 2
    coordinates: [  0.250000000000000,  0.000000000000000,  0.000000000000000 ]
    mass: 28.085500
    reduced_to: 1
  - symbol: Si # 3
    coordinates: [  0.500000000000000,  0.000000000000000,  0.000000000000000 ]
    mass: 28.085500
    reduced_to: 1
  - symbol: Si # 4
    coordinates: [  0.750000000000000,  0.000000000000000,  0.000000000000000 ]
    mass: 28.085500
    reduced_to: 1
  - symbol: Si # 5
    coordinates: [  0.000000000000000,  0.250000000000000,  0.000000000000000 ]
    mass: 28.085500
    reduced_to: 1
  - symbol: Si # 6
    coordinates: [  0.250000000000000,  0.250000000000000,  0.000000000000000 ]
    mass: 28.085500
    reduced_to: 1
  - symbol: Si # 7
    coordinates: [  0.500000000000000,  0.250000000000000,  0.000000000000000 ]
    mass: 28.085500
    reduced_to: 1
  - symbol: Si # 8
    coordinates: [  0.750000000000000,  0.250000000000000,  0.000000000000000 ]
    mass: 28.085500
    reduced_to: 1
  - symbol: Si # 9
    coordinates: [  0.000000000000000,  0.500000000000000,  0.000000000000000 ]
    mass: 28.085500
    reduced_to: 1
  - symbol: Si # 10
    coordinates: [  0.250000000000000,  0.500000000000000,  0.000000000000000 ]
    mass: 28.085500
    reduced_to: 1
  - symbol: Si # 11
    coordinates: [  0.500000000000000,  0.500000000000000,  0.000000000000000 ]
    mass: 28.085500
    reduced_to: 1
  - symbol: Si # 12
    coordinates: [  0.750000000000000,  0.500000000000000,  0.000000000000000 ]
    mass: 28.085500
    reduced_to: 1
  - symbol: Si # 13
    coordinates: [  0.000000000000000,  0.750000000000000,  0.000000000000000 ]
    mass: 28.085500
    reduced_to: 1
  - symbol: Si # 14
    coordinates: [  0.250000000000000,  0.750000000000000,  0.000000000000000 ]
    mass: 28.085500
    reduced_to: 1
  - symbol: Si # 15
    coordinates: [  0.500000000000000,  0.750000000000000,  0.000000000000000 ]
    mass: 28.085500
    reduced_to: 1
  - symbol: Si # 16
    coordinates: [  0.750000000000000,  0.750000000000000,  0.000000000000000 ]
    mass: 28.085500
    reduced_to: 1
  - symbol: Si # 17
    coordinates: [  0.000000000000000,  0.000000000000000,  0.250000000000000 ]
    mass: 28.085500
    reduced_to: 1
  - symbol: Si # 18
    coordinates: [  0.250000000000000,  0.000000000000000,  0.250000000000000 ]
    mass: 28.085500
    reduced_to: 1
  - symbol: Si # 19
    coordinates: [  0.500000000000000,  0.000000000000000,  0.250000000000000 ]
    mass: 28.085500
    reduced_to: 1
  - symbol: Si # 20
    coordinates: [  0.750000000000000,  0.000000000000000,  0.250000000000000 ]
    mass: 28.085500
    reduced_to: 1
  - symbol: Si # 21
    coordinates: [  0.000000000000000,  0.250000000000000,  0.250000000000000 ]
    mass: 28.085500
    reduced_to: 1
  - symbol: Si # 22
    coordinates: [  0.250000000000000,  0.250000000000000,  0.250000000000000 ]
    mass: 28.085500
    reduced_to: 1
  - symbol: Si # 23
    coordinates: [  0.500000000000000,  0.250000000000000,  0.250000000000000 ]
    mass: 28.085500
    reduced_to: 1
  - symbol: Si # 24
    coordinates: [  0.750000000000000,  0.250000000000000,  0.250000000000000 ]
    mass: 28.085500
    reduced_to: 1
  - symbol: Si # 25
    coordinates: [  0.000000000000000,  0.500000000000000,  0.250000000000000 ]
    mass: 28.085500
    reduced_to: 1
  - symbol: Si # 26
    coordinates: [  0.250000000000000,  0.500000000000000,  0.250000000000000 ]
    mass: 28.085500
    reduced_to: 1
  - symbol: Si # 27
    coordinates: [  0.500000000000000,  0.500000000000000,  0.250000000000000 ]
    mass: 28.085500
    reduced_to: 1
  - symbol: Si # 28
    coordinates: [  0.750000000000000,  0.500000000000000,  0.250000000000000 ]
    mass: 28.085500
    reduced_to: 1
  - symbol: Si # 29
    coordinates: [  0.000000000000000,  0.750000000000000,  0.250000000000000 ]
    mass: 28.085500
    reduced_to: 1
  - symbol: Si # 30
    coordinates: [  0.250000000000000,  0.750000000000000,  0.250000000000000 ]
    mass: 28.085500
    reduced_to: 1
  - symbol: Si # 31
    coordinates: [  0.500000000000000,  0.750000000000000,  0.250000000000000 ]
    mass: 28.085500
    reduced_to: 1
  - symbol: Si # 32
    coordinates: [  0.750000000000000,  0.750000000000000,  0.250000000000000 ]
    mass: 28.085500
    reduced_to: 1
  - symbol: Si # 33
    coordinates: [  0.000000000000000,  0.000000000000000,  0.500000000000000 ]
    mass: 28.085500
    reduced_to: 1
  - symbol: Si # 34
    coordinates: [  0.250000000000000,  0.000000000000000,  0.500000000000000 ]
    mass: 28.085500
    reduced_to: 1
  - symbol: Si # 35
    coordinates: [  0.500000000000000,  0.000000000000000,  0.500000000000000 ]
    mass: 28.085500
    reduced_to: 1
  - symbol: Si # 36
    coordinates: [  0.750000000000000,  0.000000000000000,  0.500000000000000 ]
    mass: 28.085500
    reduced_to: 1
  - symbol: Si # 37
    coordinates: [  0.000000000000000,  0.250000000000000,  0.500000000000000 ]
    mass: 28.085500
    reduced_to: 1
  - symbol: Si # 38
    coordinates: [  0.250000000000000,  0.250000000000000,  0.500000000000000 ]
    mass: 28.085500
    reduced_to: 1
  - symbol: Si # 39
    coordinates: [  0.500000000000000,  0.250000000000000,  0.500000000000000 ]
    mass: 28.085500
    reduced_to: 1
  - symbol: Si # 40
    coordinates: [  0.750000000000000,  0.250000000000000,  0.500000000000000 ]
    mass: 28.085500
    reduced_to: 1
  - symbol: Si # 41
    coordinates: [  0.000000000000000,  0.500000000000000,  0.500000000000000 ]
    mass: 28.085500
    reduced_to: 1
  - symbol: Si # 42
    coordinates: [  0.250000000000000,  0.500000000000000,  0.500000000000000 ]
    mass: 28.085500
    reduced_to: 1
  - symbol: Si # 43
    coordinates: [  0.500000000000000,  0.500000000000000,  0.500000000000000 ]
    mass: 28.085500
    reduced_to: 1
  - symbol: Si # 44
    coordinates: [  0.750000000000000,  0.500000000000000,  0.500000000000000 ]
    mass: 28.085500
    reduced_to: 1
  - symbol: Si # 45
    coordinates: [  0.000000000000000,  0.750000000000000,  0.500000000000000 ]
    mass: 28.085500
    reduced_to: 1
  - symbol: Si # 46
    coordinates: [  0.250000000000000,  0.750000000000000,  0.500000000000000 ]
    mass: 28.085500
    reduced_to: 1
  - symbol: Si # 47
    coordinates: [  0.500000000000000,  0.750000000000000,  0.500000000000000 ]
    mass: 28.085500
    reduced_to: 1
  - symbol: Si # 48
    coordinates: [  0.750000000000000,  0.750000000000000,  0.500000000000000 ]
    mass: 28.085500
    reduced_to: 1
  - symbol: Si # 49
    coordinates: [  0.000000000000000,  0.000000000000000,  0.750000000000000 ]
    mass: 28.085500
    reduced_to: 1
  - symbol: Si # 50
    coordinates: [  0.250000000000000,  0.000000000000000,  0.750000000000000 ]
    mass: 28.085500
    reduced_to: 1
  - symbol: Si # 51
    coordinates: [  0.500000000000000,  0.000000000000000,  0.750000000000000 ]
    mass: 28.085500
    reduced_to: 1
  - symbol: Si # 52
    coordinates: [  0.750000000000000,  0.000000000000000,  0.750000000000000 ]
    mass: 28.085500
    reduced_to: 1
  - symbol: Si # 53
    coordinates: [  0.000000000000000,  0.250000000000000,  0.750000000000000 ]
    mass: 28.085500
    reduced_to: 1
  - symbol: Si # 54
    coordinates: [  0.250000000000000,  0.250000000000000,  0.750000000000000 ]
    mass: 28.085500
    reduced_to: 1
  - symbol: Si # 55
    coordinates: [  0.500000000000000,  0.250000000000000,  0.750000000000000 ]
    mass: 28.085500
    reduced_to: 1
  - symbol: Si # 56
    coordinates: [  0.750000000000000,  0.250000000000000,  0.750000000000000 ]
    mass: 28.085500
    reduced_to: 1
  - symbol: Si # 57
    coordinates: [  0.000000000000000,  0.500000000000000,  0.750000000000000 ]
    mass: 28.085500
    reduced_to: 1
  - symbol: Si # 58
    coordinates: [  0.250000000000000,  0.500000000000000,  0.750000000000000 ]
    mass: 28.085500
    reduced_to: 1
  - symbol: Si # 59
    coordinates: [  0.500000000000000,  0.500000000000000,  0.750000000000000 ]
    mass: 28.085500
    reduced_to: 1
  - symbol: Si # 60
    coordinates: [  0.750000000000000,  0.500000000000000,  0.750000000000000 ]
    mass: 28.085500
    reduced_to: 1
  - symbol: Si # 61
    coordinates: [  0.000000000000000,  0.750000000000000,  0.750000000000000 ]
    mass: 28.085500
    reduced_to: 1
  - symbol: Si # 62
    coordinates: [  0.250000000000000,  0.750000000000000,  0.750000000000000 ]
    mass: 28.085500
    reduced_to: 1
  - symbol: Si # 63
    coordinates: [  0.500000000000000,  0.750000000000000,  0.750000000000000 ]
    mass: 28.085500
    reduced_to: 1
  - symbol: Si # 64
    coordinates: [  0.750000000000000,  0.750000000000000,  0.750000000000000 ]
    mass: 28.085500
    reduced_to: 1
  - symbol: Si # 65
    coordinates: [  0.062500000000000,  0.062500000000000,  0.062500000000000 ]
    mass: 28.085500
    reduced_to: 65
  - symbol: Si # 66
    coordinates: [  0.312500000000000,  0.062500000000000,  0.062500000000000 ]
    mass: 28.085500
    reduced_to: 65
  - symbol: Si # 67
    coordinates: [  0.562500000000000,  0.062500000000000,  0.062500000000000 ]
    mass: 28.085500
    reduced_to: 65
  - symbol: Si # 68
    coordinates: [  0.812500000000000,  0.062500000000000,  0.062500000000000 ]
    mass: 28.085500
    reduced_to: 65
  - symbol: Si # 69
    coordinates: [  0.062500000000000,  0.312500000000000,  0.062500000000000 ]
    mass: 28.085500
    reduced_to: 65
  - symbol: Si # 70
    coordinates: [  0.312500000000000,  0.312500000000000,  0.062500000000000 ]
    mass: 28.085500
    reduced_to: 65
  - symbol: Si # 71
    coordinates: [  0.562500000000000,  0.312500000000000,  0.062500000000000 ]
    mass: 28.085500
    reduced_to: 65
  - symbol: Si # 72
    coordinates: [  0.812500000000000,  0.312500000000000,  0.062500000000000 ]
    mass: 28.085500
    reduced_to: 65
  - symbol: Si # 73
    coordinates: [  0.062500000000000,  0.562500000000000,  0.062500000000000 ]
    mass: 28.085500
    reduced_to: 65
  - symbol: Si # 74
    coordinates: [  0.312500000000000,  0.562500000000000,  0.062500000000000 ]
    mass: 28.085500
    reduced_to: 65
  - symbol: Si # 75
    coordinates: [  0.562500000000000,  0.562500000000000,  0.062500000000000 ]
    mass: 28.085500
    reduced_to: 65
  - symbol: Si # 76
    coordinates: [  0.812500000000000,  0.562500000000000,  0.062500000000000 ]
    mass: 28.085500
    reduced_to: 65
  - symbol: Si # 77
    coordinates: [  0.062500000000000,  0.812500000000000,  0.062500000000000 ]
    mass: 28.085500
    reduced_to: 65
  - symbol: Si # 78
    coordinates: [  0.312500000000000,  0.812500000000000,  0.062500000000000 ]
    mass: 28.085500
    reduced_to: 65
  - symbol: Si # 79
    coordinates: [  0.562500000000000,  0.812500000000000,  0.062500000000000 ]
    mass: 28.085500
    reduced_to: 65
  - symbol: Si # 80
    coordinates: [  0.812500000000000,  0.812500000000000,  0.062500000000000 ]
    mass: 28.085500
    reduced_to: 65
  - symbol: Si # 81
    coordinates: [  0.062500000000000,  0.062500000000000,  0.312500000000000 ]
    mass: 28.085500
    reduced_to: 65
  - symbol: Si # 82
    coordinates: [  0.312500000000000,  0.062500000000000,  0.312500000000000 ]
    mass: 28.085500
    reduced_to: 65
  - symbol: Si # 83
    coordinates: [  0.562500000000000,  0.062500000000000,  0.312500000000000 ]
    mass: 28.085500
    reduced_to: 65
  - symbol: Si # 84
    coordinates: [  0.812500000000000,  0.062500000000000,  0.312500000000000 ]
    mass: 28.085500
    reduced_to: 65
  - symbol: Si # 85
    coordinates: [  0.062500000000000,  0.312500000000000,  0.312500000000000 ]
    mass: 28.085500
    reduced_to: 65
  - symbol: Si # 86
    coordinates: [  0.312500000000000,  0.312500000000000,  0.312500000000000 ]
    mass: 28.085500
    reduced_to: 65
  - symbol: Si # 87
    coordinates: [  0.562500000000000,  0.312500000000000,  0.312500000000000 ]
    mass: 28.085500
    reduced_to: 65
  - symbol: Si # 88
    coordinates: [  0.812500000000000,  0.312500000000000,  0.312500000000000 ]
    mass: 28.085500
    reduced_to: 65
  - symbol: Si # 89
    coordinates: [  0.062500000000000,  0.562500000000000,  0.312500000000000 ]
    mass: 28.085500
    reduced_to: 65
  - symbol: Si # 90
    coordinates: [  0.312500000000000,  0.562500000000000,  0.312500000000000 ]
    mass: 28.085500
    reduced_to: 65
  - symbol: Si # 91
    coordinates: [  0.562500000000000,  0.562500000000000,  0.312500000000000 ]
    mass: 28.085500
    reduced_to: 65
  - symbol: Si # 92
    coordinates: [  0.812500000000000,  0.562500000000000,  0.312500000000000 ]
    mass: 28.085500
    reduced_to: 65
  - symbol: Si # 93
    coordinates: [  0.062500000000000,  0.812500000000000,  0.312500000000000 ]
    mass: 28.085500
    reduced_to: 65
  - symbol: Si # 94
    coordinates: [  0.312500000000000,  0.812500000000000,  0.312500000000000 ]
    mass: 28.085500
    reduced_to: 65
  - symbol: Si # 95
    coordinates: [  0.562500000000000,  0.812500000000000,  0.312500000000000 ]
    mass: 28.085500
    reduced_to: 65
  - symbol: Si # 96
    coordinates: [  0.812500000000000,  0.812500000000000,  0.312500000000000 ]
    mass: 28.085500
    reduced_to: 65
  - symbol: Si # 97
    coordinates: [  0.062500000000000,  0.062500000000000,  0.562500000000000 ]
    mass: 28.085500
    reduced_to: 65
  - symbol: Si # 98
    coordinates: [  0.312500000000000,  0.062500000000000,  0.562500000000000 ]
    mass: 28.085500
    reduced_to: 65
  - symbol: Si # 99
    coordinates: [  0.562500000000000,  0.062500000000000,  0.562500000000000 ]
    mass: 28.085500
    reduced_to: 65
  - symbol: Si # 100
    coordinates: [  0.812500000000000,  0.062500000000000,  0.562500000000000 ]
    mass: 28.085500
    reduced_to: 65
  - symbol: Si # 101
    coordinates: [  0.062500000000000,  0.312500000000000,  0.562500000000000 ]
    mass: 28.085500
    reduced_to: 65
  - symbol: Si # 102
    coordinates: [  0.312500000000000,  0.312500000000000,  0.562500000000000 ]
    mass: 28.085500
    reduced_to: 65
  - symbol: Si # 103
    coordinates: [  0.562500000000000,  0.312500000000000,  0.562500000000000 ]
    mass: 28.085500
    reduced_to: 65
  - symbol: Si # 104
    coordinates: [  0.812500000000000,  0.312500000000000,  0.562500000000000 ]
    mass: 28.085500
    reduced_to: 65
  - symbol: Si # 105
    coordinates: [  0.062500000000000,  0.562500000000000,  0.562500000000000 ]
    mass: 28.085500
    reduced_to: 65
  - symbol: Si # 106
    coordinates: [  0.312500000000000,  0.562500000000000,  0.562500000000000 ]
    mass: 28.085500
    reduced_to: 65
  - symbol: Si # 107
    coordinates: [  0.562500000000000,  0.562500000000000,  0.562500000000000 ]
    mass: 28.085500
    reduced_to: 65
  - symbol: Si # 108
    coordinates: [  0.812500000000000,  0.562500000000000,  0.562500000000000 ]
    mass: 28.085500
    reduced_to: 65
  - symbol: Si # 109
    coordinates: [  0.062500000000000,  0.812500000000000,  0.562500000000000 ]
    mass: 28.085500
    reduced_to: 65
  - symbol: Si # 110
    coordinates: [  0.312500000000000,  0.812500000000000,  0.562500000000000 ]
    mass: 28.085500
    reduced_to: 65
  - symbol: Si # 111
    coordinates: [  0.562500000000000,  0.812500000000000,  0.562500000000000 ]
    mass: 28.085500
    reduced_to: 65
  - symbol: Si # 112
    coordinates: [  0.812500000000000,  0.812500000000000,  0.562500000000000 ]
    mass: 28.085500
    reduced_to: 65
  - symbol: Si # 113
    coordinates: [  0.062500000000000,  0.062500000000000,  0.812500000000000 ]
    mass: 28.085500
    reduced_to: 65
  - symbol: Si # 114
    coordinates: [  0.312500000000000,  0.062500000000000,  0.812500000000000 ]
    mass: 28.085500
    reduced_to: 65
  - symbol: Si # 115
    coordinates: [  0.562500000000000,  0.062500000000000,  0.812500000000000 ]
    mass: 28.085500
    reduced_to: 65
  - symbol: Si # 116
    coordinates: [  0.812500000000000,  0.062500000000000,  0.812500000000000 ]
    mass: 28.085500
    reduced_to: 65
  - symbol: Si # 117
    coordinates: [  0.062500000000000,  0.312500000000000,  0.812500000000000 ]
    mass: 28.085500
    reduced_to: 65
  - symbol: Si # 118
    coordinates: [  0.312500000000000,  0.312500000000000,  0.812500000000000 ]
    mass: 28.085500
    reduced_to: 65
  - symbol: Si # 119
    coordinates: [  0.562500000000000,  0.312500000000000,  0.812500000000000 ]
    mass: 28.085500
    reduced_to: 65
  - symbol: Si # 120
    coordinates: [  0.812500000000000,  0.312500000000000,  0.812500000000000 ]
    mass: 28.085500
    reduced_to: 65
  - symbol: Si # 121
    coordinates: [  0.062500000000000,  0.562500000000000,  0.812500000000000 ]
    mass: 28.085500
    reduced_to: 65
  - symbol: Si # 122
    coordinates: [  0.312500000000000,  0.562500000000000,  0.812500000000000 ]
    mass: 28.085500
    reduced_to: 65
  - symbol: Si # 123
    coordinates: [  0.562500000000000,  0.562500000000000,  0.812500000000000 ]
    mass: 28.085500
    reduced_to: 65
  - symbol: Si # 124
    coordinates: [  0.812500000000000,  0.562500000000000,  0.812500000000000 ]
    mass: 28.085500
    reduced_to: 65
  - symbol: Si # 125
    coordinates: [  0.062500000000000,  0.812500000000000,  0.812500000000000 ]
    mass: 28.085500
    reduced_to: 65
  - symbol: Si # 126
    coordinates: [  0.312500000000000,  0.812500000000000,  0.812500000000000 ]
    mass: 28.085500
    reduced_to: 65
  - symbol: Si # 127
    coordinates: [  0.562500000000000,  0.812500000000000,  0.812500000000000 ]
    mass: 28.085500
    reduced_to: 65
  - symbol: Si # 128
    coordinates: [  0.812500000000000,  0.812500000000000,  0.812500000000000 ]
    mass: 28.085500
    reduced_to: 65

force_constants:
  format: "full"
  shape: [ 128, 128 ]
  elements:
  - # (1, 1)
    - [    13.229840554352704,     0.000000000000000,    -0.000000000000000 ]
    - [     0.000000000000000,    13.229840554352709,    -0.000000000000001 ]
    - [    -0.000000000000000,    -0.000000000000001,    13.229840554352705 ]
  - # (1, 2)
    - [     0.443214949507495,     0.094593026178466,     0.094593026178466 ]
    - [    -0.094593026178465,    -0.183844471093849,    -0.190315766218100 ]
    - [    -0.094593026178465,    -0.190315766218100,    -0.183844471093849 ]
  - # (1, 3)
    - [     0.196152222970931,    -0.000000000000000,    -0.000000000000000 ]
    - [    -0.000000000000000,     0.002438517527665,    -0.030078565611557 ]
    - [    -0.000000000000000,    -0.030078565611557,     0.002438517527665 ]
  - # (1, 4)
    - [     0.443214949507495,    -0.094593026178465,    -0.094593026178465 ]
    - [     0.094593026178466,    -0.183844471093849,    -0.190315766218100 ]
    - [     0.094593026178466,    -0.190315766218100,    -0.183844471093849 ]
  - # (1, 5)
    - [    -0.183844471093848,    -0.094593026178466,    -0.190315766218100 ]
    - [     0.094593026178466,     0.443214949507496,     0.094593026178466 ]
    - [    -0.190315766218100,    -0.094593026178465,    -0.183844471093848 ]
  - # (1, 6)
    - [    -0.017130784941371,     0.030710035432078,    -0.020432007142923 ]
    - [     0.030710035432078,    -0.017130784941372,    -0.020432007142923 ]
    - [    -0.012632735241360,    -0.012632735241359,     0.001448295828316 ]
  - # (1, 7)
    - [    -0.017130784941371,     0.020432007142923,    -0.030710035432078 ]
    - [     0.012632735241359,     0.001448295828316,    -0.012632735241359 ]
    - [    -0.030710035432078,    -0.020432007142923,    -0.017130784941372 ]
  - # (1, 8)
    - [    -0.183844471093848,     0.190315766218100,     0.094593026178466 ]
    - [     0.190315766218100,    -0.183844471093848,    -0.094593026178466 ]
    - [    -0.094593026178466,     0.094593026178466,     0.443214949507496 ]
  - # (1, 9)
    - [     0.002438517527665,    -0.000000000000000,    -0.030078565611557 ]
    - [    -0.000000000000000,     0.196152222970930,    -0.000000000000000 ]
    - [    -0.030078565611557,    -0.000000000000000,     0.002438517527665 ]
  - # (1, 10)
    - [     0.001448295828316,     0.012632735241360,    -0.012632735241359 ]
    - [     0.020432007142923,    -0.017130784941372,    -0.030710035432078 ]
    - [    -0.020432007142923,    -0.030710035432078,    -0.017130784941372 ]
  - # (1, 11)
    - [     0.002438517527664,     0.030078565611557,    -0.000000000000000 ]
    - [     0.030078565611557,     0.002438517527664,    -0.000000000000000 ]
    - [    -0.000000000000000,    -0.000000000000000,     0.196152222970931 ]
  - # (1, 12)
    - [     0.001448295828316,     0.020432007142923,    -0.020432007142923 ]
    - [     0.012632735241360,    -0.017130784941372,    -0.030710035432078 ]
    - [    -0.012632735241359,    -0.030710035432078,    -0.017130784941372 ]
  - # (1, 13)
    - [    -0.183844471093848,     0.094593026178466,    -0.190315766218100 ]
    - [    -0.094593026178466,     0.443214949507496,    -0.094593026178465 ]
    - [    -0.190315766218100,     0.094593026178466,    -0.183844471093848 ]
  - # (1, 14)
    - [    -0.183844471093848,     0.190315766218100,    -0.094593026178466 ]
    - [     0.190315766218100,    -0.183844471093848,     0.094593026178466 ]
    - [     0.094593026178466,    -0.094593026178466,     0.443214949507496 ]
  - # (1, 15)
    - [    -0.017130784941371,     0.012632735241359,    -0.030710035432078 ]
    - [     0.020432007142923,     0.001448295828316,    -0.020432007142923 ]
    - [    -0.030710035432078,    -0.012632735241359,    -0.017130784941372 ]
  - # (1, 16)
    - [    -0.017130784941371,     0.030710035432078,    -0.012632735241360 ]
    - [     0.030710035432078,    -0.017130784941372,    -0.012632735241359 ]
    - [    -0.020432007142923,    -0.020432007142923,     0.001448295828316 ]
  - # (1, 17)
    - [    -0.183844471093847,    -0.190315766218100,    -0.094593026178466 ]
    - [    -0.190315766218100,    -0.183844471093847,    -0.094593026178465 ]
    - [     0.094593026178466,     0.094593026178466,     0.443214949507496 ]
  - # (1, 18)
    - [    -0.017130784941372,    -0.020432007142923,     0.030710035432078 ]
    - [    -0.012632735241360,     0.001448295828316,    -0.012632735241359 ]
    - [     0.030710035432078,    -0.020432007142923,    -0.017130784941372 ]
  - # (1, 19)
    - [    -0.017130784941372,    -0.030710035432078,     0.020432007142923 ]
    - [    -0.030710035432078,    -0.017130784941372,    -0.020432007142923 ]
    - [     0.012632735241359,    -0.012632735241359,     0.001448295828316 ]
  - # (1, 20)
    - [    -0.183844471093848,     0.094593026178466,     0.190315766218099 ]
    - [    -0.094593026178466,     0.443214949507496,     0.094593026178466 ]
    - [     0.190315766218099,    -0.094593026178466,    -0.183844471093848 ]
  - # (1, 21)
    - [     0.001448295828316,    -0.012632735241359,    -0.012632735241359 ]
    - [    -0.020432007142923,    -0.017130784941372,     0.030710035432078 ]
    - [    -0.020432007142923,     0.030710035432078,    -0.017130784941372 ]
  - # (1, 22)
    - [    -0.010136169968898,     0.000000000000000,     0.000000000000000 ]
    - [     0.000000000000000,    -0.010136169968897,     0.000000000000000 ]
    - [     0.000000000000000,     0.000000000000000,    -0.010136169968898 ]
  - # (1, 23)
    - [     0.001448295828316,     0.012632735241359,     0.012632735241360 ]
    - [     0.020432007142923,    -0.017130784941371,     0.030710035432078 ]
    - [     0.020432007142923,     0.030710035432078,    -0.017130784941372 ]
  - # (1, 24)
    - [    -0.008002065058581,     0.000000000000000,    -0.000000000000000 ]
    - [     0.000000000000000,    -0.022888915951365,     0.000000000000000 ]
    - [    -0.000000000000000,     0.000000000000000,    -0.022888915951365 ]
  - # (1, 25)
    - [    -0.017130784941372,    -0.030710035432078,    -0.020432007142923 ]
    - [    -0.030710035432078,    -0.017130784941372,     0.020432007142923 ]
    - [    -0.012632735241359,     0.012632735241360,     0.001448295828316 ]
  - # (1, 26)
    - [    -0.017130784941371,     0.020432007142923,     0.030710035432078 ]
    - [     0.012632735241359,     0.001448295828316,     0.012632735241360 ]
    - [     0.030710035432078,     0.020432007142923,    -0.017130784941371 ]
  - # (1, 27)
    - [    -0.010959899608638,    -0.000342203126383,    -0.000820990940237 ]
    - [    -0.000342203126383,    -0.010959899608638,    -0.000820990940237 ]
    - [     0.000820990940237,     0.000820990940237,    -0.013542544581996 ]
  - # (1, 28)
    - [    -0.010959899608637,     0.000820990940237,     0.000342203126383 ]
    - [    -0.000820990940237,    -0.013542544581996,     0.000820990940237 ]
    - [     0.000342203126383,    -0.000820990940237,    -0.010959899608637 ]
  - # (1, 29)
    - [     0.443214949507495,    -0.094593026178466,     0.094593026178466 ]
    - [     0.094593026178466,    -0.183844471093848,     0.190315766218100 ]
    - [    -0.094593026178466,     0.190315766218099,    -0.183844471093848 ]
  - # (1, 30)
    - [    -0.022888915951365,     0.000000000000000,     0.000000000000000 ]
    - [     0.000000000000000,    -0.008002065058581,     0.000000000000000 ]
    - [     0.000000000000000,     0.000000000000000,    -0.022888915951366 ]
  - # (1, 31)
    - [    -0.013542544581996,    -0.000820990940237,     0.000820990940237 ]
    - [     0.000820990940237,    -0.010959899608637,     0.000342203126383 ]
    - [    -0.000820990940237,     0.000342203126383,    -0.010959899608637 ]
  - # (1, 32)
    - [    -0.022888915951364,     0.000000000000000,    -0.000000000000000 ]
    - [     0.000000000000000,    -0.022888915951365,     0.000000000000000 ]
    - [    -0.000000000000000,     0.000000000000000,    -0.008002065058581 ]
  - # (1, 33)
    - [     0.002438517527665,    -0.030078565611557,    -0.000000000000000 ]
    - [    -0.030078565611557,     0.002438517527665,    -0.000000000000000 ]
    - [    -0.000000000000000,    -0.000000000000000,     0.196152222970931 ]
  - # (1, 34)
    - [     0.001448295828316,    -0.012632735241359,     0.012632735241360 ]
    - [    -0.020432007142923,    -0.017130784941372,    -0.030710035432078 ]
    - [     0.020432007142923,    -0.030710035432078,    -0.017130784941372 ]
  - # (1, 35)
    - [     0.002438517527665,    -0.000000000000000,     0.030078565611557 ]
    - [    -0.000000000000000,     0.196152222970930,    -0.000000000000000 ]
    - [     0.030078565611557,    -0.000000000000000,     0.002438517527665 ]
  - # (1, 36)
    - [     0.001448295828316,    -0.020432007142923,     0.020432007142923 ]
    - [    -0.012632735241359,    -0.017130784941372,    -0.030710035432078 ]
    - [     0.012632735241360,    -0.030710035432078,    -0.017130784941372 ]
  - # (1, 37)
    - [    -0.017130784941371,    -0.020432007142923,    -0.030710035432078 ]
    - [    -0.012632735241359,     0.001448295828316,     0.012632735241360 ]
    - [    -0.030710035432078,     0.020432007142923,    -0.017130784941372 ]
  - # (1, 38)
    - [    -0.017130784941371,     0.030710035432078,     0.020432007142923 ]
    - [     0.030710035432078,    -0.017130784941371,     0.020432007142923 ]
    - [     0.012632735241359,     0.012632735241359,     0.001448295828316 ]
  - # (1, 39)
    - [    -0.010959899608637,    -0.000820990940237,    -0.000342203126383 ]
    - [     0.000820990940237,    -0.013542544581996,     0.000820990940237 ]
    - [    -0.000342203126383,    -0.000820990940237,    -0.010959899608638 ]
  - # (1, 40)
    - [    -0.010959899608638,     0.000342203126383,     0.000820990940237 ]
    - [     0.000342203126383,    -0.010959899608638,    -0.000820990940237 ]
    - [    -0.000820990940237,     0.000820990940237,    -0.013542544581996 ]
  - # (1, 41)
    - [     0.196152222970931,     0.000000000000000,    -0.000000000000000 ]
    - [     0.000000000000000,     0.002438517527665,     0.030078565611557 ]