<?xml version="1.0" encoding="ISO-8859-1"?>
<modeling>
 <generator>
  <i name="program" type="string">vasp </i>
  <i name="version" type="string">6.4.3  </i>
  <i name="subversion" type="string">19Mar24 (build Jun 20 2024 15:56:09) complex                          parallel </i>
  <i name="platform" type="string">LinuxNV_CrayMPICH </i>
  <i name="date" type="string">2025 01 07 </i>
  <i name="time" type="string">18:40:07 </i>
 </generator>
 <incar>
  <i type="string" name="PREC">Accurate</i>
  <i type="int" name="IBRION">    -1</i>
  <i name="EDIFF">      0.00000001</i>
  <i type="int" name="NSW">     0</i>
  <i name="ENCUT">    500.00000000</i>
  <i type="logical" name="LREAL"> F  </i>
  <i type="int" name="ISMEAR">     0</i>
  <i name="SIGMA">      0.01000000</i>
  <i type="logical" name="LWAVE"> F  </i>
  <i type="logical" name="LCHARG"> F  </i>
 </incar>
 <primitive_cell>
  <structure name="primitive_cell" >
   <crystal>
    <varray name="basis" >
     <v>       4.14369834       4.14369834       8.28739668 </v>
     <v>       4.14369834      -4.14369834       0.00000000 </v>
     <v>       0.00000000       4.14369834      -4.14369834 </v>
    </varray>
    <i name="volume">    284.59311253 </i>
    <varray name="rec_basis" >
     <v>       0.06033258       0.06033258       0.06033258 </v>
     <v>       0.18099773      -0.06033258      -0.06033258 </v>
     <v>       0.12066515       0.12066515      -0.12066515 </v>
    </varray>
   </crystal>
   <varray name="positions" >
    <v>       0.00098523       1.00000000       1.00000000 </v>
    <v>       0.25000000       0.75000000       0.50000000 </v>
    <v>       0.50000000       0.50000000       1.00000000 </v>
    <v>       0.75000000       0.25000000       0.50000000 </v>
    <v>       0.37500000       0.12500000       0.25000000 </v>
    <v>       0.62500000       0.87500000       0.75000000 </v>
    <v>       0.87500000       0.62500000       0.25000000 </v>
    <v>       0.12500000       0.37500000       0.75000000 </v>
   </varray>
  </structure>
  <varray name="primitive_index" >
   <v type="int" >        1 </v>
   <v type="int" >        2 </v>
   <v type="int" >        3 </v>
   <v type="int" >        4 </v>
   <v type="int" >        5 </v>
   <v type="int" >        6 </v>
   <v type="int" >        7 </v>
   <v type="int" >        8 </v>
  </varray>
 </primitive_cell>
 <kpoints>
  <generation param="Gamma">
   <v type="int" name="divisions">       4        8        9 </v>
   <v name="usershift">      0.00000000       0.00000000       0.00000000 </v>
   <v name="genvec1">      0.25000000       0.00000000      -0.00000000 </v>
   <v name="genvec2">     -0.00000000       0.12500000      -0.00000000 </v>
   <v name="genvec3">     -0.00000000       0.00000000       0.11111111 </v>
   <v name="shift">      0.00000000       0.00000000       0.00000000 </v>
  </generation>
  <varray name="kpointlist" >
   <v>       0.00000000       0.00000000       0.00000000 </v>
   <v>       0.25000000       0.00000000       0.00000000 </v>
   <v>       0.50000000       0.00000000       0.00000000 </v>
   <v>       0.00000000       0.12500000       0.00000000 </v>
   <v>       0.25000000       0.12500000       0.00000000 </v>
   <v>       0.50000000       0.12500000       0.00000000 </v>
   <v>      -0.25000000       0.12500000       0.00000000 </v>
   <v>       0.00000000       0.25000000       0.00000000 </v>
   <v>       0.25000000       0.25000000       0.00000000 </v>
   <v>       0.50000000       0.25000000       0.00000000 </v>
   <v>      -0.25000000       0.25000000       0.00000000 </v>
   <v>       0.00000000       0.37500000       0.00000000 </v>
   <v>       0.25000000       0.37500000       0.00000000 </v>
   <v>       0.50000000       0.37500000       0.00000000 </v>
   <v>      -0.25000000       0.37500000       0.00000000 </v>
   <v>       0.00000000       0.50000000       0.00000000 </v>
   <v>       0.25000000       0.50000000       0.00000000 </v>
   <v>       0.50000000       0.50000000       0.00000000 </v>
   <v>       0.00000000       0.00000000       0.11111111 </v>
   <v>       0.25000000       0.00000000       0.11111111 </v>
   <v>       0.50000000       0.00000000       0.11111111 </v>
   <v>      -0.25000000       0.00000000       0.11111111 </v>
   <v>       0.00000000       0.12500000       0.11111111 </v>
   <v>       0.25000000       0.12500000       0.11111111 </v>
   <v>       0.50000000       0.12500000       0.11111111 </v>
   <v>      -0.25000000       0.12500000       0.11111111 </v>
   <v>       0.00000000       0.25000000       0.11111111 </v>
   <v>       0.25000000       0.25000000       0.11111111 </v>
   <v>       0.50000000       0.25000000       0.11111111 </v>
   <v>      -0.25000000       0.25000000       0.11111111 </v>
   <v>       0.00000000       0.37500000       0.11111111 </v>
   <v>       0.25000000       0.37500000       0.11111111 </v>
   <v>       0.50000000       0.37500000       0.11111111 </v>
   <v>      -0.25000000       0.37500000       0.11111111 </v>
   <v>       0.00000000       0.50000000       0.11111111 </v>
   <v>       0.25000000       0.50000000       0.11111111 </v>
   <v>       0.50000000       0.50000000       0.11111111 </v>
   <v>      -0.25000000       0.50000000       0.11111111 </v>
   <v>       0.00000000      -0.37500000       0.11111111 </v>
   <v>       0.25000000      -0.37500000       0.11111111 </v>
   <v>       0.50000000      -0.37500000       0.11111111 </v>
   <v>      -0.25000000      -0.37500000       0.11111111 </v>
   <v>       0.00000000      -0.25000000       0.11111111 </v>
   <v>       0.25000000      -0.25000000       0.11111111 </v>
   <v>       0.50000000      -0.25000000       0.11111111 </v>
   <v>      -0.25000000      -0.25000000       0.11111111 </v>
   <v>       0.00000000      -0.12500000       0.11111111 </v>
   <v>       0.25000000      -0.12500000       0.11111111 </v>
   <v>       0.50000000      -0.12500000       0.11111111 </v>
   <v>      -0.25000000      -0.12500000       0.11111111 </v>
   <v>       0.00000000       0.00000000       0.22222222 </v>
   <v>       0.25000000       0.00000000       0.22222222 </v>
   <v>       0.50000000       0.00000000       0.22222222 </v>
   <v>      -0.25000000       0.00000000       0.22222222 </v>
   <v>       0.00000000       0.12500000       0.22222222 </v>
   <v>       0.25000000       0.12500000       0.22222222 </v>
   <v>       0.50000000       0.12500000       0.22222222 </v>
   <v>      -0.25000000       0.12500000       0.22222222 </v>
   <v>       0.00000000       0.25000000       0.22222222 </v>
   <v>       0.25000000       0.25000000       0.22222222 </v>
   <v>       0.50000000       0.25000000       0.22222222 </v>
   <v>      -0.25000000       0.25000000       0.22222222 </v>
   <v>       0.00000000       0.37500000       0.22222222 </v>
   <v>       0.25000000       0.37500000       0.22222222 </v>
   <v>       0.50000000       0.37500000       0.22222222 </v>
   <v>      -0.25000000       0.37500000       0.22222222 </v>
   <v>       0.00000000       0.50000000       0.22222222 </v>
   <v>       0.25000000       0.50000000       0.22222222 </v>
   <v>       0.50000000       0.50000000       0.22222222 </v>
   <v>      -0.25000000       0.50000000       0.22222222 </v>
   <v>       0.00000000      -0.37500000       0.22222222 </v>
   <v>       0.25000000      -0.37500000       0.22222222 </v>
   <v>       0.50000000      -0.37500000       0.22222222 </v>
   <v>      -0.25000000      -0.37500000       0.22222222 </v>
   <v>       0.00000000      -0.25000000       0.22222222 </v>
   <v>       0.25000000      -0.25000000       0.22222222 </v>
   <v>       0.50000000      -0.25000000       0.22222222 </v>
   <v>      -0.25000000      -0.25000000       0.22222222 </v>
   <v>       0.00000000      -0.12500000       0.22222222 </v>
   <v>       0.25000000      -0.12500000       0.22222222 </v>
   <v>       0.50000000      -0.12500000       0.22222222 </v>
   <v>      -0.25000000      -0.12500000       0.22222222 </v>
   <v>       0.00000000       0.00000000       0.33333333 </v>
   <v>       0.25000000       0.00000000       0.33333333 </v>
   <v>       0.50000000       0.00000000       0.33333333 </v>
   <v>      -0.25000000       0.00000000       0.33333333 </v>
   <v>       0.00000000       0.12500000       0.33333333 </v>
   <v>       0.25000000       0.12500000       0.33333333 </v>
   <v>       0.50000000       0.12500000       0.33333333 </v>
   <v>      -0.25000000       0.12500000       0.33333333 </v>
   <v>       0.00000000       0.25000000       0.33333333 </v>
   <v>       0.25000000       0.25000000       0.33333333 </v>
   <v>       0.50000000       0.25000000       0.33333333 </v>
   <v>      -0.25000000       0.25000000       0.33333333 </v>
   <v>       0.00000000       0.37500000       0.33333333 </v>
   <v>       0.25000000       0.37500000       0.33333333 </v>
   <v>       0.50000000       0.37500000       0.33333333 </v>
   <v>      -0.25000000       0.37500000       0.33333333 </v>
   <v>       0.00000000       0.50000000       0.33333333 </v>
   <v>       0.25000000       0.50000000       0.33333333 </v>
   <v>       0.50000000       0.50000000       0.33333333 </v>
   <v>      -0.25000000       0.50000000       0.33333333 </v>
   <v>       0.00000000      -0.37500000       0.33333333 </v>
   <v>       0.25000000      -0.37500000       0.33333333 </v>
   <v>       0.50000000      -0.37500000       0.33333333 </v>
   <v>      -0.25000000      -0.37500000       0.33333333 </v>
   <v>       0.00000000      -0.25000000       0.33333333 </v>
   <v>       0.25000000      -0.25000000       0.33333333 </v>
   <v>       0.50000000      -0.25000000       0.33333333 </v>
   <v>      -0.25000000      -0.25000000       0.33333333 </v>
   <v>       0.00000000      -0.12500000       0.33333333 </v>
   <v>       0.25000000      -0.12500000       0.33333333 </v>
   <v>       0.50000000      -0.12500000       0.33333333 </v>
   <v>      -0.25000000      -0.12500000       0.33333333 </v>
   <v>       0.00000000       0.00000000       0.44444444 </v>
   <v>       0.25000000       0.00000000       0.44444444 </v>
   <v>       0.50000000       0.00000000       0.44444444 </v>
   <v>      -0.25000000       0.00000000       0.44444444 </v>
   <v>       0.00000000       0.12500000       0.44444444 </v>
   <v>       0.25000000       0.12500000       0.44444444 </v>
   <v>       0.50000000       0.12500000       0.44444444 </v>
   <v>      -0.25000000       0.12500000       0.44444444 </v>
   <v>       0.00000000       0.25000000       0.44444444 </v>
   <v>       0.25000000       0.25000000       0.44444444 </v>
   <v>       0.50000000       0.25000000       0.44444444 </v>
   <v>      -0.25000000       0.25000000       0.44444444 </v>
   <v>       0.00000000       0.37500000       0.44444444 </v>
   <v>       0.25000000       0.37500000       0.44444444 </v>
   <v>       0.50000000       0.37500000       0.44444444 </v>
   <v>      -0.25000000       0.37500000       0.44444444 </v>
   <v>       0.00000000       0.50000000       0.44444444 </v>
   <v>       0.25000000       0.50000000       0.44444444 </v>
   <v>       0.50000000       0.50000000       0.44444444 </v>
   <v>      -0.25000000       0.50000000       0.44444444 </v>
   <v>       0.00000000      -0.37500000       0.44444444 </v>
   <v>       0.25000000      -0.37500000       0.44444444 </v>
   <v>       0.50000000      -0.37500000       0.44444444 </v>
   <v>      -0.25000000      -0.37500000       0.44444444 </v>
   <v>       0.00000000      -0.25000000       0.44444444 </v>
   <v>       0.25000000      -0.25000000       0.44444444 </v>
   <v>       0.50000000      -0.25000000       0.44444444 </v>
   <v>      -0.25000000      -0.25000000       0.44444444 </v>
   <v>       0.00000000      -0.12500000       0.44444444 </v>
   <v>       0.25000000      -0.12500000       0.44444444 </v>
   <v>       0.50000000      -0.12500000       0.44444444 </v>
   <v>      -0.25000000      -0.12500000       0.44444444 </v>
  </varray>
  <varray name="weights" >
   <v>       0.00347222 </v>
   <v>       0.00694444 </v>
   <v>       0.00347222 </v>
   <v>       0.00694444 </v>
   <v>       0.00694444 </v>
   <v>       0.00694444 </v>
   <v>       0.00694444 </v>
   <v>       0.00694444 </v>
   <v>       0.00694444 </v>
   <v>       0.00694444 </v>
   <v>       0.00694444 </v>
   <v>       0.00694444 </v>
   <v>       0.00694444 </v>
   <v>       0.00694444 </v>
   <v>       0.00694444 </v>
   <v>       0.00347222 </v>
   <v>       0.00694444 </v>
   <v>       0.00347222 </v>
   <v>       0.00694444 </v>
   <v>       0.00694444 </v>
   <v>       0.00694444 </v>
   <v>       0.00694444 </v>
   <v>       0.00694444 </v>
   <v>       0.00694444 </v>
   <v>       0.00694444 </v>
   <v>       0.00694444 </v>
   <v>       0.00694444 </v>
   <v>       0.00694444 </v>
   <v>       0.00694444 </v>
   <v>       0.00694444 </v>
   <v>       0.00694444 </v>
   <v>       0.00694444 </v>
   <v>       0.00694444 </v>
   <v>       0.00694444 </v>
   <v>       0.00694444 </v>
   <v>       0.00694444 </v>
   <v>       0.00694444 </v>
   <v>       0.00694444 </v>
   <v>       0.00694444 </v>
   <v>       0.00694444 </v>
   <v>       0.00694444 </v>
   <v>       0.00694444 </v>
   <v>       0.00694444 </v>
   <v>       0.00694444 </v>
   <v>       0.00694444 </v>
   <v>       0.00694444 </v>
   <v>       0.00694444 </v>
   <v>       0.00694444 </v>
   <v>       0.00694444 </v>
   <v>       0.00694444 </v>
   <v>       0.00694444 </v>
   <v>       0.00694444 </v>
   <v>       0.00694444 </v>
   <v>       0.00694444 </v>
   <v>       0.00694444 </v>
   <v>       0.00694444 </v>
   <v>       0.00694444 </v>
   <v>       0.00694444 </v>
   <v>       0.00694444 </v>
   <v>       0.00694444 </v>
   <v>       0.00694444 </v>
   <v>       0.00694444 </v>
   <v>       0.00694444 </v>
   <v>       0.00694444 </v>
   <v>       0.00694444 </v>
   <v>       0.00694444 </v>
   <v>       0.00694444 </v>
   <v>       0.00694444 </v>
   <v>       0.00694444 </v>
   <v>       0.00694444 </v>
   <v>       0.00694444 </v>
   <v>       0.00694444 </v>
   <v>       0.00694444 </v>
   <v>       0.00694444 </v>
   <v>       0.00694444 </v>
   <v>       0.00694444 </v>
   <v>       0.00694444 </v>
   <v>       0.00694444 </v>
   <v>       0.00694444 </v>
   <v>       0.00694444 </v>
   <v>       0.00694444 </v>
   <v>       0.00694444 </v>
   <v>       0.00694444 </v>
   <v>       0.00694444 </v>
   <v>       0.00694444 </v>
   <v>       0.00694444 </v>
   <v>       0.00694444 </v>
   <v>       0.00694444 </v>
   <v>       0.00694444 </v>
   <v>       0.00694444 </v>
   <v>       0.00694444 </v>
   <v>       0.00694444 </v>
   <v>       0.00694444 </v>
   <v>       0.00694444 </v>
   <v>       0.00694444 </v>
   <v>       0.00694444 </v>
   <v>       0.00694444 </v>
   <v>       0.00694444 </v>
   <v>       0.00694444 </v>
   <v>       0.00694444 </v>
   <v>       0.00694444 </v>
   <v>       0.00694444 </v>
   <v>       0.00694444 </v>
   <v>       0.00694444 </v>
   <v>       0.00694444 </v>
   <v>       0.00694444 </v>
   <v>       0.00694444 </v>
   <v>       0.00694444 </v>
   <v>       0.00694444 </v>
   <v>       0.00694444 </v>
   <v>       0.00694444 </v>
   <v>       0.00694444 </v>
   <v>       0.00694444 </v>
   <v>       0.00694444 </v>
   <v>       0.00694444 </v>
   <v>       0.00694444 </v>
   <v>       0.00694444 </v>
   <v>       0.00694444 </v>
   <v>       0.00694444 </v>
   <v>       0.00694444 </v>
   <v>       0.00694444 </v>
   <v>       0.00694444 </v>
   <v>       0.00694444 </v>
   <v>       0.00694444 </v>
   <v>       0.00694444 </v>
   <v>       0.00694444 </v>
   <v>       0.00694444 </v>
   <v>       0.00694444 </v>
   <v>       0.00694444 </v>
   <v>       0.00694444 </v>
   <v>       0.00694444 </v>
   <v>       0.00694444 </v>
   <v>       0.00694444 </v>
   <v>       0.00694444 </v>
   <v>       0.00694444 </v>
   <v>       0.00694444 </v>
   <v>       0.00694444 </v>
   <v>       0.00694444 </v>
   <v>       0.00694444 </v>
   <v>       0.00694444 </v>
   <v>       0.00694444 </v>
   <v>       0.00694444 </v>
   <v>       0.00694444 </v>
   <v>       0.00694444 </v>
   <v>       0.00694444 </v>
   <v>       0.00694444 </v>
  </varray>
 </kpoints>
 <parameters>
  <separator name="general" >
   <i type="string" name="SYSTEM">unknown system</i>
   <i type="logical" name="LCOMPAT"> F  </i>
  </separator>
  <separator name="electronic" >
   <i type="string" name="PREC">accura</i>
   <i name="ENMAX">    500.00000000</i>
   <i name="ENAUG">    407.93300000</i>
   <i name="EDIFF">      0.00000001</i>
   <i type="int" name="IALGO">    38</i>
   <i type="int" name="IWAVPR">    10</i>
   <i type="int" name="NBANDS">    40</i>
   <i type="int" name="NBANDSLOW">    -1</i>
   <i type="int" name="NBANDSHIGH">    -1</i>
   <i name="NELECT">     64.00000000</i>
   <i type="int" name="TURBO">     0</i>
   <i type="int" name="IRESTART">     0</i>
   <i type="int" name="NREBOOT">     0</i>
   <i type="int" name="NMIN">     0</i>
   <i name="EREF">      0.00000000</i>
   <separator name="electronic smearing" >
    <i type="int" name="ISMEAR">     0</i>
    <i name="SIGMA">      0.01000000</i>
    <i name="KSPACING">      0.50000000</i>
    <i type="logical" name="KGAMMA"> T  </i>
    <i type="logical" name="KBLOWUP"> F  </i>
   </separator>
   <separator name="electronic projectors" >
    <i type="logical" name="LREAL"> F  </i>
    <v name="ROPT">      0.00000000      0.00000000</v>
    <i type="int" name="LMAXPAW">  -100</i>
    <i type="int" name="LMAXMIX">     2</i>
    <i type="logical" name="NLSPLINE"> F  </i>
   </separator>
   <separator name="electronic startup" >
    <i type="int" name="ISTART">     0</i>
    <i type="int" name="ICHARG">     2</i>
    <i type="int" name="INIWAV">     1</i>
   </separator>
   <separator name="electronic spin" >
    <i type="int" name="ISPIN">     1</i>
    <i type="logical" name="LNONCOLLINEAR"> F  </i>
    <v name="MAGMOM">      1.00000000      1.00000000      1.00000000      1.00000000      1.00000000      1.00000000      1.00000000      1.00000000</v>
    <i name="NUPDOWN">     -1.00000000</i>
    <i type="logical" name="LSORBIT"> F  </i>
    <v name="SAXIS">      0.00000000      0.00000000      1.00000000</v>
    <i type="logical" name="LSPIRAL"> F  </i>
    <v name="QSPIRAL">      0.00000000      0.00000000      0.00000000</v>
    <i type="logical" name="LZEROZ"> F  </i>
   </separator>
   <separator name="electronic exchange-correlation" >
    <i type="logical" name="LASPH"> F  </i>
   </separator>
   <separator name="electronic convergence" >
    <i type="int" name="NELM">    60</i>
    <i type="int" name="NELMDL">    -5</i>
    <i type="int" name="NELMIN">     2</i>
    <i name="ENINI">    500.00000000</i>
    <separator name="electronic convergence detail" >
     <i type="logical" name="LDIAG"> T  </i>
     <i type="logical" name="LSUBROT"> F  </i>
     <i name="WEIMIN">      0.00000000</i>
     <i name="EBREAK">      0.00000000</i>
     <i name="DEPER">      0.30000000</i>
     <i type="int" name="NRMM">     4</i>
     <i name="TIME">      0.40000000</i>
    </separator>
   </separator>
   <separator name="electronic mixer" >
    <i name="AMIX">      0.40000000</i>
    <i name="BMIX">      1.00000000</i>
    <i name="AMIN">      0.10000000</i>
    <i name="AMIX_MAG">      1.60000000</i>
    <i name="BMIX_MAG">      1.00000000</i>
    <separator name="electronic mixer details" >
     <i type="int" name="IMIX">     4</i>
     <i type="logical" name="MIXFIRST"> F  </i>
     <i type="int" name="MAXMIX">   -45</i>
     <i name="WC">    100.00000000</i>
     <i type="int" name="INIMIX">     1</i>
     <i type="int" name="MIXPRE">     1</i>
     <i type="int" name="MREMOVE">     5</i>
    </separator>
   </separator>
   <separator name="electronic dipolcorrection" >
    <i type="logical" name="LDIPOL"> F  </i>
    <i type="logical" name="LMONO"> F  </i>
    <i type="int" name="IDIPOL">     0</i>
    <i name="EPSILON">      1.00000000</i>
    <v name="DIPOL">   -100.00000000   -100.00000000   -100.00000000</v>
    <i name="EFIELD">      0.00000000</i>
    <i type="logical" name="LVACPOTAV"> F  </i>
   </separator>
  </separator>
  <separator name="grids" >
   <i type="int" name="NGX">    80</i>
   <i type="int" name="NGY">    48</i>
   <i type="int" name="NGZ">    48</i>
   <i type="int" name="NGXF">   160</i>
   <i type="int" name="NGYF">    96</i>
   <i type="int" name="NGZF">    96</i>
   <i type="logical" name="ADDGRID"> F  </i>
  </separator>
  <separator name="ionic" >
   <i type="int" name="NSW">     0</i>
   <i type="int" name="IBRION">    -1</i>
   <i type="int" name="MDALGO">     0</i>
   <i type="int" name="ISIF">     2</i>
   <i name="PSTRESS">      0.00000000</i>
   <i name="EDIFFG">      0.00000010</i>
   <i type="int" name="NFREE">     0</i>
   <i name="POTIM">      0.50000000</i>
   <i name="SMASS">     -3.00000000</i>
   <i name="SCALEE">      1.00000000</i>
  </separator>
  <separator name="ionic md" >
   <i name="TEBEG">      0.00010000</i>
   <i name="TEEND">      0.00010000</i>
   <i type="int" name="NBLOCK">     1</i>
   <i type="int" name="KBLOCK">     1</i>
   <i type="int" name="NPACO">   256</i>
   <i name="APACO">     10.00000000</i>
  </separator>
  <separator name="symmetry" >
   <i type="int" name="ISYM">     2</i>
   <i name="SYMPREC">      0.00001000</i>
  </separator>
  <separator name="dos" >
   <i type="int" name="LORBIT">     0</i>
   <v name="RWIGS">     -1.00000000     -1.00000000</v>
   <i type="int" name="NEDOS">   301</i>
   <i name="EMIN">     10.00000000</i>
   <i name="EMAX">    -10.00000000</i>
   <i name="EFERMI">      0.00000000</i>
  </separator>
  <separator name="writing" >
   <i type="int" name="NWRITE">     2</i>
   <i type="logical" name="LWAVE"> F  </i>
   <i type="logical" name="LDOWNSAMPLE"> F  </i>
   <i type="logical" name="LCHARG"> F  </i>
   <i type="logical" name="LPARD"> F  </i>
   <i type="logical" name="LVTOT"> F  </i>
   <i type="logical" name="LVHAR"> F  </i>
   <i type="logical" name="LELF"> F  </i>
   <i type="logical" name="LOPTICS"> F  </i>
   <v name="STM">      0.00000000      0.00000000      0.00000000      0.00000000      0.00000000      0.00000000      0.00000000</v>
  </separator>
  <separator name="performance" >
   <i type="int" name="NPAR">     8</i>
   <i type="int" name="NSIM">     4</i>
   <i type="int" name="NBLK">    -1</i>
   <i type="logical" name="LPLANE"> T  </i>
   <i type="logical" name="LSCALAPACK"> T  </i>
   <i type="logical" name="LSCAAWARE"> F  </i>
   <i type="logical" name="LSCALU"> F  </i>
   <i type="logical" name="LASYNC"> F  </i>
   <i type="logical" name="LORBITALREAL"> F  </i>
  </separator>
  <separator name="miscellaneous" >
   <i type="int" name="IDIOT">     3</i>
   <i type="int" name="PHON_NSTRUCT">    -1</i>
   <i type="logical" name="LMUSIC"> F  </i>
   <v name="POMASS">    132.90000000     35.45300000</v>
   <v name="DARWINR">      0.00000000      0.00000000</v>
   <v name="DARWINV">      1.00000000      1.00000000</v>
   <i type="logical" name="LCORR"> T  </i>
  </separator>
  <i type="logical" name="GGA_COMPAT"> T  </i>
  <i type="logical" name="LBERRY"> F  </i>
  <i type="int" name="ICORELEVEL">     0</i>
  <i type="logical" name="LDAU"> F  </i>
  <i type="int" name="I_CONSTRAINED_M">     0</i>
  <separator name="electronic exchange-correlation" >
   <i type="string" name="GGA    ">PE</i>
   <i type="string" name="XC_C">1</i>
   <i type="int" name="VOSKOWN">     0</i>
   <i type="logical" name="LHFCALC"> F  </i>
   <i type="string" name="PRECFOCK"></i>
   <i type="logical" name="LSYMGRAD"> F  </i>
   <i type="logical" name="LHFONE"> F  </i>
   <i type="logical" name="LRHFCALC"> F  </i>
   <i type="logical" name="LTHOMAS"> F  </i>
   <i type="logical" name="LMODELHF"> F  </i>
   <i type="logical" name="LFOCKACE"> F  </i>
   <i name="ENCUT4O">     -1.00000000</i>
   <i type="int" name="EXXOEP">     0</i>
   <i type="int" name="FOURORBIT">     0</i>
   <i name="AEXX">      0.00000000</i>
   <i name="HFALPHA">      0.00000000</i>
   <i name="MCALPHA">      0.00000000</i>
   <i name="ALDAX">      1.00000000</i>
   <i name="AGGAX">      1.00000000</i>
   <i name="AMGGAX">      1.00000000</i>
   <i name="ALDAC">      1.00000000</i>
   <i name="AGGAC">      1.00000000</i>
   <i name="AMGGAC">      1.00000000</i>
   <i type="int" name="NKREDX">     1</i>
   <i type="int" name="NKREDY">     1</i>
   <i type="int" name="NKREDZ">     1</i>
   <i type="logical" name="SHIFTRED"> F  </i>
   <i type="logical" name="ODDONLY"> F  </i>
   <i type="logical" name="EVENONLY"> F  </i>
   <i type="int" name="LMAXFOCK">     0</i>
   <i type="int" name="NMAXFOCKAE">     0</i>
   <i type="logical" name="LFOCKAEDFT"> F  </i>
   <i name="HFSCREEN">      0.00000000</i>
   <i name="HFSCREENC">      0.00000000</i>
   <i type="int" name="NBANDSGWLOW">     0</i>
  </separator>
  <separator name="vdW DFT" >
   <i type="logical" name="LUSE_VDW"> F  </i>
   <i type="int" name="IVDW_NL">    -1</i>
   <i type="logical" name="LSPIN_VDW"> F  </i>
   <i name="ZAB_VDW">     -0.84910000</i>
   <i name="GAMMA_VDW">      1.39626340</i>
   <i name="ALPHA_VDW">      0.00000000</i>
   <i name="PARAM1">      0.12340000</i>
   <i name="PARAM2">      1.00000000</i>
   <i name="BPARAM">      6.30000000</i>
   <i name="CPARAM">      0.00930000</i>
  </separator>
  <separator name="model GW" >
   <i type="int" name="MODEL_GW">     0</i>
   <i name="MODEL_EPS0">     21.34448344</i>
   <i name="MODEL_ALPHA">      1.00000000</i>
  </separator>
  <separator name="linear response parameters" >
   <i type="logical" name="LEPSILON"> F  </i>
   <i type="logical" name="LRPA"> F  </i>
   <i type="logical" name="LNABLA"> F  </i>
   <i type="logical" name="LVEL"> F  </i>
   <i name="CSHIFT">      0.10000000</i>
   <i name="OMEGAMAX">     -1.00000000</i>
   <i name="DEG_THRESHOLD">      0.00200000</i>
   <i name="RTIME">     -0.10000000</i>
   <i name="WPLASMAI">      0.00000000</i>
   <v name="DFIELD">      0.00000000      0.00000000      0.00000000</v>
   <v name="WPLASMA">      0.00000000      0.00000000      0.00000000      0.00000000      0.00000000      0.00000000      0.00000000      0.00000000      0.00000000</v>
  </separator>
  <separator name="orbital magnetization" >
   <i type="logical" name="NUCIND"> F  </i>
   <v name="MAGPOS">      0.00000000      0.00000000      0.00000000</v>
   <i type="logical" name="LNICSALL"> T  </i>
   <i type="logical" name="ORBITALMAG"> F  </i>
   <i type="logical" name="LMAGBLOCH"> F  </i>
   <i type="logical" name="LCHIMAG"> F  </i>
   <i type="logical" name="LGAUGE"> T  </i>
   <i type="int" name="MAGATOM">     0</i>
   <v name="MAGDIPOL">      0.00000000      0.00000000      0.00000000</v>
   <v name="AVECCONST">      0.00000000      0.00000000      0.00000000</v>
  </separator>
  <separator name="response functions" >
   <i type="logical" name="LALL_IN_ONE"> F  </i>
   <i type="int" name="IALL_IN_ONE">    -1</i>
   <i type="int" name="NBANDS_WAVE">    -1</i>
   <i type="logical" name="LFINITE_TEMPERATURE"> F  </i>
   <i type="logical" name="LADDER"> F  </i>
   <i type="logical" name="LRPAFORCE"> F  </i>
   <i type="logical" name="LFXC"> F  </i>
   <i type="logical" name="LHARTREE"> T  </i>
   <i type="int" name="IBSE">     0</i>
   <v type="int" name="KPOINT">    -1     0     0     0</v>
   <i type="logical" name="LTCTC"> F  </i>
   <i type="logical" name="LTCTE"> F  </i>
   <i type="logical" name="LTETE"> F  </i>
   <i type="logical" name="LTRIPLET"> F  </i>
   <i type="logical" name="LFXCEPS"> F  </i>
   <i type="logical" name="LFXHEG"> F  </i>
   <i type="int" name="NATURALO">     2</i>
   <i type="logical" name="LHOLEGF"> F  </i>
   <i type="logical" name="L2ORDER"> F  </i>
   <i type="logical" name="LDMP1"> F  </i>
   <i type="logical" name="LMP2LT"> F  </i>
   <i type="logical" name="LSMP2LT"> F  </i>
   <i type="logical" name="LGWLF"> F  </i>
   <i name="ENCUTGW">     -1.60000002</i>
   <i name="ENCUTGWSOFT">     -1.60000002</i>
   <i name="ENCUTLF">     -1.00000000</i>
   <i type="logical" name="ESF_SPLINES"> F  </i>
   <i name="ESF_CONV">      0.01000000</i>
   <i type="int" name="ESF_NINTER">    15</i>
   <i type="int" name="LMAXMP2">    -1</i>
   <i name="SCISSOR">      0.00000000</i>
   <i type="int" name="NOMEGA">     0</i>
   <i type="int" name="NOMEGAR">     0</i>
   <i type="int" name="NBANDSGW">    -1</i>
   <i type="int" name="NBANDSO">    -1</i>
   <i type="int" name="NBANDSV">    -1</i>
   <i type="int" name="NELMGW">     1</i>
   <i type="int" name="NELMHF">     1</i>
   <i type="int" name="DIM">     3</i>
   <i type="int" name="IESPILON">     4</i>
   <i type="int" name="ANTIRES">     0</i>
   <i name="OMEGAMAX">    -30.00000000</i>
   <i name="OMEGAMIN">    -30.00000000</i>
   <i name="OMEGATL">   -200.00000000</i>
   <i type="int" name="OMEGAGRID">     0</i>
   <i name="CSHIFT">     -0.10000000</i>
   <i type="logical" name="LSELFENERGY"> F  </i>
   <i type="logical" name="LSPECTRAL"> F  </i>
   <i type="logical" name="LSPECTRALGW"> F  </i>
   <i type="logical" name="LSINGLES"> F  </i>
   <i type="logical" name="LFERMIGW"> F  </i>
   <i type="logical" name="ODDONLYGW"> F  </i>
   <i type="logical" name="EVENONLYGW"> F  </i>
   <i type="int" name="NKREDLFX">     1</i>
   <i type="int" name="NKREDLFY">     1</i>
   <i type="int" name="NKREDLFZ">     1</i>
   <i type="int" name="MAXMEM">  2800</i>
   <i type="int" name="TELESCOPE">     0</i>
   <i type="int" name="NTAUPAR">    -1</i>
   <i type="int" name="NOMEGAPAR">    -1</i>
   <i name="DAMP_NEWTON">      0.80000001</i>
   <i name="LAMBDA">      1.00000000</i>
  </separator>
  <separator name="External order field" >
   <i name="OFIELD_KAPPA">      0.00000000</i>
   <v name="OFIELD_K">      0.00000000      0.00000000      0.00000000</v>
   <i name="OFIELD_Q6_NEAR">      0.00000000</i>
   <i name="OFIELD_Q6_FAR">      0.00000000</i>
   <i name="OFIELD_A">      0.00000000</i>
  </separator>
  <separator name="optional k-points parameters" >
   <i type="int" name="KPOINTS_OPT_MODE">     1</i>
   <i type="logical" name="LKPOINTS_OPT"> F  </i>
  </separator>
 </parameters>
 <atominfo>
  <atoms>       8 </atoms>
  <types>       2 </types>
  <array name="atoms" >
   <dimension dim="1">ion</dimension>
   <field type="string">element</field>
   <field type="int">atomtype</field>
   <set>
    <rc><c>Cs</c><c>   1</c></rc>
    <rc><c>Cs</c><c>   1</c></rc>
    <rc><c>Cs</c><c>   1</c></rc>
    <rc><c>Cs</c><c>   1</c></rc>
    <rc><c>Cl</c><c>   2</c></rc>
    <rc><c>Cl</c><c>   2</c></rc>
    <rc><c>Cl</c><c>   2</c></rc>
    <rc><c>Cl</c><c>   2</c></rc>
   </set>
  </array>
  <array name="atomtypes" >
   <dimension dim="1">type</dimension>
   <field type="int">atomspertype</field>
   <field type="string">element</field>
   <field>mass</field>
   <field>valence</field>
   <field type="string">pseudopotential</field>
   <set>
    <rc><c>   4</c><c>Cs</c><c>    132.90000000</c><c>      9.00000000</c><c>  PAW_PBE Cs_sv 25Jan2019               </c></rc>
    <rc><c>   4</c><c>Cl</c><c>     35.45300000</c><c>      7.00000000</c><c>  PAW_PBE Cl 06Sep2000                  </c></rc>
   </set>
  </array>
 </atominfo>
 <structure name="initialpos" >
  <crystal>
   <varray name="basis" >
    <v>       4.14369834       4.14369834       8.28739668 </v>
    <v>       4.14369834      -4.14369834       0.00000000 </v>
    <v>       0.00000000       4.14369834      -4.14369834 </v>
   </varray>
   <i name="volume">    284.59311253 </i>
   <varray name="rec_basis" >
    <v>       0.06033258       0.06033258       0.06033258 </v>
    <v>       0.18099773      -0.06033258      -0.06033258 </v>
    <v>       0.12066515       0.12066515      -0.12066515 </v>
   </varray>
  </crystal>
  <varray name="positions" >
   <v>       0.00098523       0.00000000       0.00000000 </v>
   <v>       0.25000000       0.75000000       0.50000000 </v>
   <v>       0.50000000       0.50000000       0.00000000 </v>
   <v>       0.75000000       0.25000000       0.50000000 </v>
   <v>       0.37500000       0.12500000       0.25000000 </v>
   <v>       0.62500000       0.87500000       0.75000000 </v>
   <v>       0.87500000       0.62500000       0.25000000 </v>
   <v>       0.12500000       0.37500000       0.75000000 </v>
  </varray>
 </structure>
 <calculation>
  <scstep>
   <time name="dav">    2.03    2.03</time>
   <time name="total">    2.07    2.07</time>
   <energy>
    <i name="alphaZ">    214.16676563 </i>
    <i name="ewald">  -3265.84601144 </i>
    <i name="hartreedc">   -531.75919325 </i>
    <i name="XCdc">   -120.86788704 </i>
    <i name="pawpsdc">   3246.12869203 </i>
    <i name="pawaedc">  -2972.40719683 </i>
    <i name="eentropy">     -0.00008083 </i>
    <i name="bandstr">     36.27064242 </i>
    <i name="atom">   3861.61514281 </i>
    <i name="e_fr_energy">    467.30087349 </i>
    <i name="e_wo_entrp">    467.30095432 </i>
    <i name="e_0_energy">    467.30091391 </i>
   </energy>
  </scstep>
  <scstep>
   <time name="dav">    2.56    2.57</time>
   <time name="total">    2.56    2.57</time>
   <energy>
    <i name="e_fr_energy">     16.19160562 </i>
    <i name="e_wo_entrp">     16.19160562 </i>
    <i name="e_0_energy">     16.19160562 </i>
   </energy>
  </scstep>
  <scstep>
   <time name="dav">    2.29    2.29</time>
   <time name="total">    2.29    2.29</time>
   <energy>
    <i name="e_fr_energy">    -27.12213493 </i>
    <i name="e_wo_entrp">    -27.12213493 </i>
    <i name="e_0_energy">    -27.12213493 </i>
   </energy>
  </scstep>
  <scstep>
   <time name="dav">    2.29    2.29</time>
   <time name="total">    2.29    2.29</time>
   <energy>
    <i name="e_fr_energy">    -27.79878325 </i>
    <i name="e_wo_entrp">    -27.79878325 </i>
    <i name="e_0_energy">    -27.79878325 </i>
   </energy>
  </scstep>
  <scstep>
   <time name="dav">    2.18    2.18</time>
   <time name="total">    2.32    2.32</time>
   <energy>
    <i name="e_fr_energy">    -27.81210780 </i>
    <i name="e_wo_entrp">    -27.81210780 </i>
    <i name="e_0_energy">    -27.81210780 </i>
   </energy>
  </scstep>
  <scstep>
   <time name="dav">    2.19    2.19</time>
   <time name="total">    2.37    2.37</time>
   <energy>
    <i name="e_fr_energy">    -26.30039654 </i>
    <i name="e_wo_entrp">    -26.30039654 </i>
    <i name="e_0_energy">    -26.30039654 </i>
   </energy>
  </scstep>
  <scstep>
   <time name="dav">    2.47    2.47</time>
   <time name="total">    2.64    2.64</time>
   <energy>
    <i name="e_fr_energy">    -26.13147533 </i>
    <i name="e_wo_entrp">    -26.13147533 </i>
    <i name="e_0_energy">    -26.13147533 </i>
   </energy>
  </scstep>
  <scstep>
   <time name="dav">    2.23    2.23</time>
   <time name="total">    2.39    2.39</time>
   <energy>
    <i name="e_fr_energy">    -26.13431267 </i>
    <i name="e_wo_entrp">    -26.13431267 </i>
    <i name="e_0_energy">    -26.13431267 </i>
   </energy>
  </scstep>
  <scstep>
   <time name="dav">    2.41    2.41</time>
   <time name="total">    2.57    2.58</time>
   <energy>
    <i name="e_fr_energy">    -26.13129321 </i>
    <i name="e_wo_entrp">    -26.13129321 </i>
    <i name="e_0_energy">    -26.13129321 </i>
   </energy>
  </scstep>
  <scstep>
   <time name="dav">    2.21    2.21</time>
   <time name="total">    2.39    2.39</time>
   <energy>
    <i name="e_fr_energy">    -26.13206522 </i>
    <i name="e_wo_entrp">    -26.13206522 </i>
    <i name="e_0_energy">    -26.13206522 </i>
   </energy>
  </scstep>
  <scstep>
   <time name="dav">    2.22    2.22</time>
   <time name="total">    2.39    2.40</time>
   <energy>
    <i name="e_fr_energy">    -26.13225790 </i>
    <i name="e_wo_entrp">    -26.13225790 </i>
    <i name="e_0_energy">    -26.13225790 </i>
   </energy>
  </scstep>
  <scstep>
   <time name="dav">    2.24    2.24</time>
   <time name="total">    2.41    2.42</time>
   <energy>
    <i name="e_fr_energy">    -26.13226693 </i>
    <i name="e_wo_entrp">    -26.13226693 </i>
    <i name="e_0_energy">    -26.13226693 </i>
   </energy>
  </scstep>
  <scstep>
   <time name="dav">    2.32    2.32</time>
   <time name="total">    2.49    2.49</time>
   <energy>
    <i name="e_fr_energy">    -26.13226583 </i>
    <i name="e_wo_entrp">    -26.13226583 </i>
    <i name="e_0_energy">    -26.13226583 </i>
   </energy>
  </scstep>
  <scstep>
   <time name="dav">    2.19    2.19</time>
   <time name="total">    2.37    2.37</time>
   <energy>
    <i name="e_fr_energy">    -26.13226578 </i>
    <i name="e_wo_entrp">    -26.13226578 </i>
    <i name="e_0_energy">    -26.13226578 </i>
   </energy>
  </scstep>
  <scstep>
   <time name="dav">    1.84    1.84</time>
   <time name="total">    2.02    2.02</time>
   <energy>
    <i name="e_fr_energy">    -26.13226579 </i>
    <i name="e_wo_entrp">    -26.13226579 </i>
    <i name="e_0_energy">    -26.13226579 </i>
   </energy>
  </scstep>
  <scstep>
   <time name="dav">    1.76    1.76</time>
   <time name="total">    1.80    1.80</time>
   <energy>
    <i name="alphaZ">    214.16676563 </i>
    <i name="ewald">  -3265.84601144 </i>
    <i name="hartreedc">   -554.75640580 </i>
    <i name="XCdc">   -118.49244038 </i>
    <i name="pawpsdc">   3633.68004297 </i>
    <i name="pawaedc">  -3361.17692757 </i>
    <i name="eentropy">     -0.00000000 </i>
    <i name="bandstr">   -435.32243201 </i>
    <i name="atom">   3861.61514281 </i>
    <i name="e_fr_energy">    -26.13226579 </i>
    <i name="e_wo_entrp">    -26.13226579 </i>
    <i name="e_0_energy">    -26.13226579 </i>
   </energy>
  </scstep>
  <structure>
   <crystal>
    <varray name="basis" >
     <v>       4.14369834       4.14369834       8.28739668 </v>
     <v>       4.14369834      -4.14369834       0.00000000 </v>
     <v>       0.00000000       4.14369834      -4.14369834 </v>
    </varray>
    <i name="volume">    284.59311253 </i>
    <varray name="rec_basis" >
     <v>       0.06033258       0.06033258       0.06033258 </v>
     <v>       0.18099773      -0.06033258      -0.06033258 </v>
     <v>       0.12066515       0.12066515      -0.12066515 </v>
    </varray>
   </crystal>
   <varray name="positions" >
    <v>       0.00098523       0.00000000       0.00000000 </v>
    <v>       0.25000000       0.75000000       0.50000000 </v>
    <v>       0.50000000       0.50000000       0.00000000 </v>
    <v>       0.75000000       0.25000000       0.50000000 </v>
    <v>       0.37500000       0.12500000       0.25000000 </v>
    <v>       0.62500000       0.87500000       0.75000000 </v>
    <v>       0.87500000       0.62500000       0.25000000 </v>
    <v>       0.12500000       0.37500000       0.75000000 </v>
   </varray>
  </structure>
  <varray name="forces" >
   <v>      -0.00706069      -0.00706069      -0.01237692 </v>
   <v>       0.00104264       0.00104264       0.00210196 </v>
   <v>       0.00173159       0.00173159       0.00177012 </v>
   <v>       0.00105913       0.00105913       0.00208512 </v>
   <v>       0.00027081       0.00027081       0.00041715 </v>
   <v>       0.00017192       0.00017192       0.00032120 </v>
   <v>       0.00139492       0.00139492       0.00282016 </v>
   <v>       0.00138968       0.00138968       0.00286120 </v>
  </varray>
  <varray name="stress" >
   <v>       7.41703354       0.00040393       0.00131143 </v>
   <v>       0.00040393       7.41703354       0.00131143 </v>
   <v>       0.00131140       0.00131140       7.41700540 </v>
  </varray>
  <energy>
   <i name="e_fr_energy">    -26.13226579 </i>
   <i name="e_wo_entrp">    -26.13226579 </i>
   <i name="e_0_energy">    -26.13226579 </i>
  </energy>
  <time name="totalsc">   39.51   39.53</time>
  <eigenvalues>
   <array>
    <dimension dim="1">band</dimension>
    <dimension dim="2">kpoint</dimension>
    <dimension dim="3">spin</dimension>
    <field>eigene</field>
    <field>occ</field>
    <set>
     <set comment="spin 1">
      <set comment="kpoint 1">
       <r>  -19.7965    1.0000 </r>
       <r>  -19.6897    1.0000 </r>
       <r>  -19.6883    1.0000 </r>
       <r>  -19.5913    1.0000 </r>
       <r>  -12.5535    1.0000 </r>
       <r>  -12.5162    1.0000 </r>
       <r>  -12.5152    1.0000 </r>
       <r>  -12.3911    1.0000 </r>
       <r>   -6.8075    1.0000 </r>
       <r>   -6.8074    1.0000 </r>
       <r>   -6.8074    1.0000 </r>
       <r>   -6.5980    1.0000 </r>
       <r>   -6.5965    1.0000 </r>
       <r>   -6.5945    1.0000 </r>
       <r>   -6.5929    1.0000 </r>
       <r>   -6.5245    1.0000 </r>
       <r>   -6.5229    1.0000 </r>
       <r>   -6.2936    1.0000 </r>
       <r>   -6.2935    1.0000 </r>
       <r>   -6.2935    1.0000 </r>
       <r>   -1.4542    1.0000 </r>
       <r>   -1.4541    1.0000 </r>
       <r>   -1.4541    1.0000 </r>
       <r>   -0.8518    1.0000 </r>
       <r>   -0.8516    1.0000 </r>
       <r>   -0.8510    1.0000 </r>
       <r>   -0.8507    1.0000 </r>
       <r>   -0.8392    1.0000 </r>
       <r>   -0.8387    1.0000 </r>
       <r>   -0.3951    1.0000 </r>
       <r>   -0.3951    1.0000 </r>
       <r>   -0.3951    1.0000 </r>
       <r>    4.7979    0.0000 </r>
       <r>    5.0131    0.0000 </r>
       <r>    5.0132    0.0000 </r>
       <r>    7.1335    0.0000 </r>
       <r>    7.1385    0.0000 </r>
       <r>    7.3090    0.0000 </r>
       <r>    7.3108    0.0000 </r>
       <r>    7.3133    0.0000 </r>
      </set>
      <set comment="kpoint 2">
       <r>  -19.7879    1.0000 </r>
       <r>  -19.7286    1.0000 </r>
       <r>  -19.6508    1.0000 </r>
       <r>  -19.5984    1.0000 </r>
       <r>  -12.5574    1.0000 </r>
       <r>  -12.5464    1.0000 </r>
       <r>  -12.4710    1.0000 </r>
       <r>  -12.4002    1.0000 </r>
       <r>   -6.8103    1.0000 </r>
       <r>   -6.7944    1.0000 </r>
       <r>   -6.7943    1.0000 </r>
       <r>   -6.6886    1.0000 </r>
       <r>   -6.6865    1.0000 </r>
       <r>   -6.6865    1.0000 </r>
       <r>   -6.4914    1.0000 </r>
       <r>   -6.4913    1.0000 </r>
       <r>   -6.3637    1.0000 </r>
       <r>   -6.3201    1.0000 </r>
       <r>   -6.3201    1.0000 </r>
       <r>   -6.2818    1.0000 </r>
       <r>   -1.4025    1.0000 </r>
       <r>   -1.4025    1.0000 </r>
       <r>   -1.3262    1.0000 </r>
       <r>   -1.0623    1.0000 </r>
       <r>   -1.0623    1.0000 </r>
       <r>   -0.8753    1.0000 </r>
       <r>   -0.8484    1.0000 </r>
       <r>   -0.6637    1.0000 </r>
       <r>   -0.6637    1.0000 </r>
       <r>   -0.5292    1.0000 </r>
       <r>   -0.4272    1.0000 </r>
       <r>   -0.4272    1.0000 </r>
       <r>    5.0721    0.0000 </r>
       <r>    5.1896    0.0000 </r>
       <r>    5.1896    0.0000 </r>
       <r>    6.4340    0.0000 </r>
       <r>    6.4340    0.0000 </r>
       <r>    6.5089    0.0000 </r>
       <r>    6.9613    0.0000 </r>
       <r>    7.6809    0.0000 </r>
      </set>
      <set comment="kpoint 3">
       <r>  -19.7669    1.0000 </r>
       <r>  -19.7605    1.0000 </r>
       <r>  -19.6213    1.0000 </r>
       <r>  -19.6170    1.0000 </r>
       <r>  -12.5622    1.0000 </r>
       <r>  -12.5553    1.0000 </r>
       <r>  -12.4316    1.0000 </r>
       <r>  -12.4246    1.0000 </r>
       <r>   -6.7888    1.0000 </r>
       <r>   -6.7845    1.0000 </r>
       <r>   -6.7587    1.0000 </r>
       <r>   -6.7574    1.0000 </r>
       <r>   -6.7507    1.0000 </r>
       <r>   -6.7495    1.0000 </r>
       <r>   -6.3942    1.0000 </r>
       <r>   -6.3932    1.0000 </r>
       <r>   -6.3912    1.0000 </r>
       <r>   -6.3903    1.0000 </r>
       <r>   -6.2859    1.0000 </r>
       <r>   -6.2813    1.0000 </r>
       <r>   -1.2642    1.0000 </r>
       <r>   -1.2641    1.0000 </r>
       <r>   -1.2569    1.0000 </r>
       <r>   -1.2567    1.0000 </r>
       <r>   -1.0510    1.0000 </r>
       <r>   -1.0452    1.0000 </r>
       <r>   -0.7701    1.0000 </r>
       <r>   -0.7642    1.0000 </r>
       <r>   -0.5231    1.0000 </r>
       <r>   -0.5230    1.0000 </r>
       <r>   -0.5156    1.0000 </r>
       <r>   -0.5155    1.0000 </r>
       <r>    5.6841    0.0000 </r>
       <r>    5.6843    0.0000 </r>
       <r>    5.6943    0.0000 </r>
       <r>    5.6945    0.0000 </r>
       <r>    5.7270    0.0000 </r>
       <r>    5.7307    0.0000 </r>
       <r>    7.1106    0.0000 </r>
       <r>    7.1175    0.0000 </r>
      </set>
      <set comment="kpoint 4">
       <r>  -19.7887    1.0000 </r>
       <r>  -19.6943    1.0000 </r>
       <r>  -19.6829    1.0000 </r>
       <r>  -19.5977    1.0000 </r>
       <r>  -12.5567    1.0000 </r>
       <r>  -12.5236    1.0000 </r>
       <r>  -12.5135    1.0000 </r>
       <r>  -12.3992    1.0000 </r>
       <r>   -6.8250    1.0000 </r>
       <r>   -6.8223    1.0000 </r>
       <r>   -6.7767    1.0000 </r>
       <r>   -6.7546    1.0000 </r>
       <r>   -6.7148    1.0000 </r>
       <r>   -6.5994    1.0000 </r>
       <r>   -6.5011    1.0000 </r>
       <r>   -6.4778    1.0000 </r>
       <r>   -6.3452    1.0000 </r>
       <r>   -6.3402    1.0000 </r>
       <r>   -6.2906    1.0000 </r>
       <r>   -6.2812    1.0000 </r>
       <r>   -1.4053    1.0000 </r>
       <r>   -1.3940    1.0000 </r>
       <r>   -1.3483    1.0000 </r>
       <r>   -1.0180    1.0000 </r>
       <r>   -1.0009    1.0000 </r>
       <r>   -0.8957    1.0000 </r>
       <r>   -0.7834    1.0000 </r>
       <r>   -0.6697    1.0000 </r>
       <r>   -0.6655    1.0000 </r>
       <r>   -0.5312    1.0000 </r>
       <r>   -0.4204    1.0000 </r>
       <r>   -0.4193    1.0000 </r>
       <r>    5.0507    0.0000 </r>
       <r>    5.1092    0.0000 </r>
       <r>    5.2423    0.0000 </r>
       <r>    6.5206    0.0000 </r>
       <r>    6.8722    0.0000 </r>
       <r>    6.9247    0.0000 </r>
       <r>    7.0389    0.0000 </r>
       <r>    7.3943    0.0000 </r>
      </set>
      <set comment="kpoint 5">
       <r>  -19.7783    1.0000 </r>
       <r>  -19.7308    1.0000 </r>
       <r>  -19.6481    1.0000 </r>
       <r>  -19.6064    1.0000 </r>
       <r>  -12.5618    1.0000 </r>
       <r>  -12.5508    1.0000 </r>
       <r>  -12.4690    1.0000 </r>
       <r>  -12.4100    1.0000 </r>
       <r>   -6.8589    1.0000 </r>
       <r>   -6.8558    1.0000 </r>
       <r>   -6.8549    1.0000 </r>
       <r>   -6.6613    1.0000 </r>
       <r>   -6.6439    1.0000 </r>
       <r>   -6.5983    1.0000 </r>
       <r>   -6.5799    1.0000 </r>
       <r>   -6.4504    1.0000 </r>
       <r>   -6.4231    1.0000 </r>
       <r>   -6.2725    1.0000 </r>
       <r>   -6.2651    1.0000 </r>
       <r>   -6.2601    1.0000 </r>
       <r>   -1.3240    1.0000 </r>
       <r>   -1.3073    1.0000 </r>
       <r>   -1.2270    1.0000 </r>
       <r>   -1.1043    1.0000 </r>
       <r>   -1.0896    1.0000 </r>
       <r>   -0.9805    1.0000 </r>
       <r>   -0.7744    1.0000 </r>
       <r>   -0.7075    1.0000 </r>
       <r>   -0.6349    1.0000 </r>
       <r>   -0.5679    1.0000 </r>
       <r>   -0.4494    1.0000 </r>
       <r>   -0.4479    1.0000 </r>
       <r>    5.2098    0.0000 </r>
       <r>    5.3676    0.0000 </r>
       <r>    5.6079    0.0000 </r>
       <r>    5.9809    0.0000 </r>
       <r>    6.4485    0.0000 </r>
       <r>    6.7326    0.0000 </r>
       <r>    6.8282    0.0000 </r>
       <r>    7.4118    0.0000 </r>
      </set>
      <set comment="kpoint 6">
       <r>  -19.7635    1.0000 </r>
       <r>  -19.7527    1.0000 </r>
       <r>  -19.6280    1.0000 </r>
       <r>  -19.6194    1.0000 </r>
       <r>  -12.5649    1.0000 </r>
       <r>  -12.5577    1.0000 </r>
       <r>  -12.4400    1.0000 </r>
       <r>  -12.4282    1.0000 </r>
       <r>   -6.8808    1.0000 </r>
       <r>   -6.8501    1.0000 </r>
       <r>   -6.8436    1.0000 </r>
       <r>   -6.7353    1.0000 </r>
       <r>   -6.6769    1.0000 </r>
       <r>   -6.5592    1.0000 </r>
       <r>   -6.5352    1.0000 </r>
       <r>   -6.4720    1.0000 </r>
       <r>   -6.3497    1.0000 </r>
       <r>   -6.3070    1.0000 </r>
       <r>   -6.2685    1.0000 </r>
       <r>   -6.2432    1.0000 </r>
       <r>   -1.2815    1.0000 </r>
       <r>   -1.2231    1.0000 </r>
       <r>   -1.2110    1.0000 </r>
       <r>   -1.1504    1.0000 </r>
       <r>   -1.0153    1.0000 </r>
       <r>   -0.9441    1.0000 </r>
       <r>   -0.9291    1.0000 </r>
       <r>   -0.8371    1.0000 </r>
       <r>   -0.5450    1.0000 </r>
       <r>   -0.5224    1.0000 </r>
       <r>   -0.5141    1.0000 </r>
       <r>   -0.4777    1.0000 </r>
       <r>    5.4930    0.0000 </r>
       <r>    5.6280    0.0000 </r>
       <r>    5.7910    0.0000 </r>
       <r>    5.9201    0.0000 </r>
       <r>    5.9484    0.0000 </r>
       <r>    6.2790    0.0000 </r>
       <r>    6.8987    0.0000 </r>
       <r>    7.0761    0.0000 </r>
      </set>
      <set comment="kpoint 7">
       <r>  -19.7831    1.0000 </r>
       <r>  -19.7200    1.0000 </r>
       <r>  -19.6581    1.0000 </r>
       <r>  -19.6024    1.0000 </r>
       <r>  -12.5588    1.0000 </r>
       <r>  -12.5468    1.0000 </r>
       <r>  -12.4812    1.0000 </r>
       <r>  -12.4054    1.0000 </r>
       <r>   -6.8382    1.0000 </r>
       <r>   -6.8031    1.0000 </r>
       <r>   -6.7853    1.0000 </r>
       <r>   -6.7596    1.0000 </r>
       <r>   -6.7511    1.0000 </r>
       <r>   -6.6604    1.0000 </r>
       <r>   -6.4498    1.0000 </r>
       <r>   -6.3814    1.0000 </r>
       <r>   -6.3616    1.0000 </r>
       <r>   -6.3515    1.0000 </r>
       <r>   -6.3106    1.0000 </r>
       <r>   -6.2736    1.0000 </r>
       <r>   -1.3859    1.0000 </r>
       <r>   -1.3546    1.0000 </r>
       <r>   -1.2649    1.0000 </r>
       <r>   -1.0733    1.0000 </r>
       <r>   -1.0172    1.0000 </r>
       <r>   -0.9630    1.0000 </r>
       <r>   -0.7531    1.0000 </r>
       <r>   -0.6987    1.0000 </r>
       <r>   -0.6042    1.0000 </r>
       <r>   -0.5912    1.0000 </r>
       <r>   -0.4483    1.0000 </r>
       <r>   -0.4337    1.0000 </r>
       <r>    5.1959    0.0000 </r>
       <r>    5.2454    0.0000 </r>
       <r>    5.3556    0.0000 </r>
       <r>    6.2778    0.0000 </r>
       <r>    6.5592    0.0000 </r>
       <r>    6.7775    0.0000 </r>
       <r>    7.0347    0.0000 </r>
       <r>    7.0639    0.0000 </r>
      </set>
      <set comment="kpoint 8">
       <r>  -19.7676    1.0000 </r>
       <r>  -19.6932    1.0000 </r>
       <r>  -19.6821    1.0000 </r>
       <r>  -19.6154    1.0000 </r>
       <r>  -12.5632    1.0000 </r>
       <r>  -12.5261    1.0000 </r>
       <r>  -12.5231    1.0000 </r>
       <r>  -12.4222    1.0000 </r>
       <r>   -6.8788    1.0000 </r>
       <r>   -6.8584    1.0000 </r>
       <r>   -6.8580    1.0000 </r>
       <r>   -6.8147    1.0000 </r>
       <r>   -6.6752    1.0000 </r>
       <r>   -6.6112    1.0000 </r>
       <r>   -6.4761    1.0000 </r>
       <r>   -6.4555    1.0000 </r>
       <r>   -6.3815    1.0000 </r>
       <r>   -6.2837    1.0000 </r>
       <r>   -6.2597    1.0000 </r>
       <r>   -6.1672    1.0000 </r>
       <r>   -1.2749    1.0000 </r>
       <r>   -1.2354    1.0000 </r>
       <r>   -1.1559    1.0000 </r>
       <r>   -1.0865    1.0000 </r>
       <r>   -1.0585    1.0000 </r>
       <r>   -0.8877    1.0000 </r>
       <r>   -0.8274    1.0000 </r>
       <r>   -0.7360    1.0000 </r>
       <r>   -0.5542    1.0000 </r>
       <r>   -0.5401    1.0000 </r>
       <r>   -0.4889    1.0000 </r>
       <r>   -0.4783    1.0000 </r>
       <r>    5.3835    0.0000 </r>
       <r>    5.6424    0.0000 </r>
       <r>    5.9127    0.0000 </r>
       <r>    5.9829    0.0000 </r>
       <r>    6.4862    0.0000 </r>
       <r>    6.8358    0.0000 </r>
       <r>    6.8385    0.0000 </r>
       <r>    7.1313    0.0000 </r>
      </set>
      <set comment="kpoint 9">
       <r>  -19.7585    1.0000 </r>
       <r>  -19.7225    1.0000 </r>
       <r>  -19.6549    1.0000 </r>
       <r>  -19.6224    1.0000 </r>
       <r>  -12.5717    1.0000 </r>
       <r>  -12.5500    1.0000 </r>
       <r>  -12.4818    1.0000 </r>
       <r>  -12.4297    1.0000 </r>
       <r>   -6.9247    1.0000 </r>
       <r>   -6.9246    1.0000 </r>
       <r>   -6.9178    1.0000 </r>
       <r>   -6.6846    1.0000 </r>
       <r>   -6.5945    1.0000 </r>
       <r>   -6.5695    1.0000 </r>
       <r>   -6.5071    1.0000 </r>
       <r>   -6.5007    1.0000 </r>
       <r>   -6.4612    1.0000 </r>
       <r>   -6.2280    1.0000 </r>
       <r>   -6.2280    1.0000 </r>
       <r>   -6.1740    1.0000 </r>
       <r>   -1.1377    1.0000 </r>
       <r>   -1.1376    1.0000 </r>
       <r>   -1.1142    1.0000 </r>
       <r>   -1.0674    1.0000 </r>
       <r>   -1.0640    1.0000 </r>
       <r>   -1.0266    1.0000 </r>
       <r>   -1.0001    1.0000 </r>
       <r>   -0.6551    1.0000 </r>
       <r>   -0.6448    1.0000 </r>
       <r>   -0.5159    1.0000 </r>
       <r>   -0.5037    1.0000 </r>
       <r>   -0.5037    1.0000 </r>
       <r>    5.4068    0.0000 </r>
       <r>    5.8573    0.0000 </r>
       <r>    5.9538    0.0000 </r>
       <r>    6.4254    0.0000 </r>
       <r>    6.4670    0.0000 </r>
       <r>    6.6996    0.0000 </r>
       <r>    6.7884    0.0000 </r>
       <r>    7.1599    0.0000 </r>
      </set>
      <set comment="kpoint 10">
       <r>  -19.7487    1.0000 </r>
       <r>  -19.7373    1.0000 </r>
       <r>  -19.6401    1.0000 </r>
       <r>  -19.6322    1.0000 </r>
       <r>  -12.5743    1.0000 </r>
       <r>  -12.5577    1.0000 </r>
       <r>  -12.4549    1.0000 </r>
       <r>  -12.4458    1.0000 </r>
       <r>   -6.9426    1.0000 </r>
       <r>   -6.9288    1.0000 </r>
       <r>   -6.8785    1.0000 </r>
       <r>   -6.6963    1.0000 </r>
       <r>   -6.6770    1.0000 </r>
       <r>   -6.6299    1.0000 </r>
       <r>   -6.5346    1.0000 </r>
       <r>   -6.3928    1.0000 </r>
       <r>   -6.3293    1.0000 </r>
       <r>   -6.2429    1.0000 </r>
       <r>   -6.2310    1.0000 </r>
       <r>   -6.2283    1.0000 </r>
       <r>   -1.2037    1.0000 </r>
       <r>   -1.1997    1.0000 </r>
       <r>   -1.1530    1.0000 </r>
       <r>   -1.0506    1.0000 </r>
       <r>   -0.9987    1.0000 </r>
       <r>   -0.9290    1.0000 </r>
       <r>   -0.8797    1.0000 </r>
       <r>   -0.7579    1.0000 </r>
       <r>   -0.5811    1.0000 </r>
       <r>   -0.5725    1.0000 </r>
       <r>   -0.5395    1.0000 </r>
       <r>   -0.5183    1.0000 </r>
       <r>    5.7204    0.0000 </r>
       <r>    5.7246    0.0000 </r>
       <r>    6.1250    0.0000 </r>
       <r>    6.3007    0.0000 </r>
       <r>    6.3794    0.0000 </r>
       <r>    6.4167    0.0000 </r>
       <r>    6.5431    0.0000 </r>
       <r>    6.8930    0.0000 </r>
      </set>
      <set comment="kpoint 11">
       <r>  -19.7639    1.0000 </r>
       <r>  -19.7112    1.0000 </r>
       <r>  -19.6641    1.0000 </r>
       <r>  -19.6190    1.0000 </r>
       <r>  -12.5620    1.0000 </r>
       <r>  -12.5548    1.0000 </r>
       <r>  -12.4894    1.0000 </r>
       <r>  -12.4279    1.0000 </r>
       <r>   -6.9054    1.0000 </r>
       <r>   -6.8380    1.0000 </r>
       <r>   -6.7904    1.0000 </r>
       <r>   -6.7842    1.0000 </r>
       <r>   -6.7539    1.0000 </r>
       <r>   -6.7538    1.0000 </r>
       <r>   -6.3923    1.0000 </r>
       <r>   -6.3922    1.0000 </r>
       <r>   -6.3113    1.0000 </r>
       <r>   -6.2866    1.0000 </r>
       <r>   -6.2835    1.0000 </r>
       <r>   -6.2259    1.0000 </r>
       <r>   -1.2607    1.0000 </r>
       <r>   -1.2605    1.0000 </r>
       <r>   -1.2300    1.0000 </r>
       <r>   -1.0485    1.0000 </r>
       <r>   -1.0174    1.0000 </r>
       <r>   -0.8560    1.0000 </r>
       <r>   -0.7672    1.0000 </r>
       <r>   -0.7139    1.0000 </r>
       <r>   -0.5973    1.0000 </r>
       <r>   -0.5466    1.0000 </r>
       <r>   -0.5192    1.0000 </r>
       <r>   -0.5191    1.0000 </r>
       <r>    5.6893    0.0000 </r>
       <r>    5.6893    0.0000 </r>
       <r>    5.7288    0.0000 </r>
       <r>    6.1601    0.0000 </r>
       <r>    6.2403    0.0000 </r>
       <r>    6.3160    0.0000 </r>
       <r>    6.7872    0.0000 </r>
       <r>    7.1141    0.0000 </r>
      </set>
      <set comment="kpoint 12">
       <r>  -19.7393    1.0000 </r>
       <r>  -19.6912    1.0000 </r>
       <r>  -19.6830    1.0000 </r>
       <r>  -19.6395    1.0000 </r>
       <r>  -12.5659    1.0000 </r>
       <r>  -12.5409    1.0000 </r>
       <r>  -12.5150    1.0000 </r>
       <r>  -12.4549    1.0000 </r>
       <r>   -6.8944    1.0000 </r>
       <r>   -6.8792    1.0000 </r>
       <r>   -6.8774    1.0000 </r>
       <r>   -6.8704    1.0000 </r>
       <r>   -6.7643    1.0000 </r>
       <r>   -6.6408    1.0000 </r>
       <r>   -6.4137    1.0000 </r>
       <r>   -6.3870    1.0000 </r>
       <r>   -6.3178    1.0000 </r>
       <r>   -6.2791    1.0000 </r>
       <r>   -6.2631    1.0000 </r>
       <r>   -6.1250    1.0000 </r>
       <r>   -1.2370    1.0000 </r>
       <r>   -1.1159    1.0000 </r>
       <r>   -1.0940    1.0000 </r>
       <r>   -1.0338    1.0000 </r>
       <r>   -1.0283    1.0000 </r>
       <r>   -0.8215    1.0000 </r>
       <r>   -0.7993    1.0000 </r>
       <r>   -0.7524    1.0000 </r>
       <r>   -0.5935    1.0000 </r>
       <r>   -0.5361    1.0000 </r>
       <r>   -0.5287    1.0000 </r>
       <r>   -0.5090    1.0000 </r>
       <r>    5.7905    0.0000 </r>
       <r>    5.8476    0.0000 </r>
       <r>    6.2829    0.0000 </r>
       <r>    6.2939    0.0000 </r>
       <r>    6.5969    0.0000 </r>
       <r>    6.6064    0.0000 </r>
       <r>    6.8606    0.0000 </r>
       <r>    6.9048    0.0000 </r>
      </set>
      <set comment="kpoint 13">
       <r>  -19.7358    1.0000 </r>
       <r>  -19.7032    1.0000 </r>
       <r>  -19.6734    1.0000 </r>
       <r>  -19.6408    1.0000 </r>
       <r>  -12.5815    1.0000 </r>
       <r>  -12.5345    1.0000 </r>
       <r>  -12.5064    1.0000 </r>
       <r>  -12.4531    1.0000 </r>
       <r>   -6.9796    1.0000 </r>
       <r>   -6.9752    1.0000 </r>
       <r>   -6.8617    1.0000 </r>
       <r>   -6.7403    1.0000 </r>
       <r>   -6.7099    1.0000 </r>
       <r>   -6.5915    1.0000 </r>
       <r>   -6.5192    1.0000 </r>
       <r>   -6.4527    1.0000 </r>
       <r>   -6.2552    1.0000 </r>
       <r>   -6.2259    1.0000 </r>
       <r>   -6.1982    1.0000 </r>
       <r>   -6.1976    1.0000 </r>
       <r>   -1.3088    1.0000 </r>
       <r>   -1.0884    1.0000 </r>
       <r>   -1.0492    1.0000 </r>
       <r>   -0.9722    1.0000 </r>
       <r>   -0.9582    1.0000 </r>
       <r>   -0.9479    1.0000 </r>
       <r>   -0.7208    1.0000 </r>
       <r>   -0.6986    1.0000 </r>
       <r>   -0.6143    1.0000 </r>
       <r>   -0.5781    1.0000 </r>
       <r>   -0.5751    1.0000 </r>
       <r>   -0.5627    1.0000 </r>
       <r>    5.7289    0.0000 </r>
       <r>    6.1257    0.0000 </r>
       <r>    6.1545    0.0000 </r>
       <r>    6.2328    0.0000 </r>
       <r>    6.5879    0.0000 </r>
       <r>    6.6485    0.0000 </r>
       <r>    6.8096    0.0000 </r>
       <r>    7.1097    0.0000 </r>
      </set>
      <set comment="kpoint 14">
       <r>  -19.7265    1.0000 </r>
       <r>  -19.7198    1.0000 </r>
       <r>  -19.6579    1.0000 </r>
       <r>  -19.6488    1.0000 </r>
       <r>  -12.5873    1.0000 </r>
       <r>  -12.5441    1.0000 </r>
       <r>  -12.4806    1.0000 </r>
       <r>  -12.4632    1.0000 </r>
       <r>   -7.0090    1.0000 </r>
       <r>   -7.0034    1.0000 </r>
       <r>   -6.7757    1.0000 </r>
       <r>   -6.7628    1.0000 </r>
       <r>   -6.6329    1.0000 </r>
       <r>   -6.6082    1.0000 </r>
       <r>   -6.5747    1.0000 </r>
       <r>   -6.4753    1.0000 </r>
       <r>   -6.3554    1.0000 </r>
       <r>   -6.1814    1.0000 </r>
       <r>   -6.1784    1.0000 </r>
       <r>   -6.1462    1.0000 </r>
       <r>   -1.4390    1.0000 </r>
       <r>   -1.0398    1.0000 </r>
       <r>   -1.0267    1.0000 </r>
       <r>   -0.9203    1.0000 </r>
       <r>   -0.8845    1.0000 </r>
       <r>   -0.8693    1.0000 </r>
       <r>   -0.8017    1.0000 </r>
       <r>   -0.6858    1.0000 </r>
       <r>   -0.6609    1.0000 </r>
       <r>   -0.6075    1.0000 </r>
       <r>   -0.5929    1.0000 </r>
       <r>   -0.5458    1.0000 </r>
       <r>    5.8067    0.0000 </r>
       <r>    5.8421    0.0000 </r>
       <r>    5.9078    0.0000 </r>
       <r>    6.3554    0.0000 </r>
       <r>    6.6576    0.0000 </r>
       <r>    6.7882    0.0000 </r>
       <r>    6.9210    0.0000 </r>
       <r>    6.9501    0.0000 </r>
      </set>
      <set comment="kpoint 15">
       <r>  -19.7347    1.0000 </r>
       <r>  -19.7089    1.0000 </r>
       <r>  -19.6644    1.0000 </r>
       <r>  -19.6451    1.0000 </r>
       <r>  -12.5734    1.0000 </r>
       <r>  -12.5513    1.0000 </r>
       <r>  -12.4881    1.0000 </r>
       <r>  -12.4635    1.0000 </r>
       <r>   -6.9750    1.0000 </r>
       <r>   -6.9241    1.0000 </r>
       <r>   -6.8369    1.0000 </r>
       <r>   -6.7620    1.0000 </r>
       <r>   -6.7462    1.0000 </r>
       <r>   -6.5985    1.0000 </r>
       <r>   -6.5456    1.0000 </r>
       <r>   -6.4120    1.0000 </r>
       <r>   -6.3334    1.0000 </r>
       <r>   -6.2544    1.0000 </r>
       <r>   -6.2214    1.0000 </r>
       <r>   -6.0989    1.0000 </r>
       <r>   -1.3951    1.0000 </r>
       <r>   -1.1176    1.0000 </r>
       <r>   -1.0683    1.0000 </r>
       <r>   -0.9223    1.0000 </r>
       <r>   -0.9115    1.0000 </r>
       <r>   -0.8475    1.0000 </r>
       <r>   -0.7983    1.0000 </r>
       <r>   -0.6959    1.0000 </r>
       <r>   -0.6391    1.0000 </r>
       <r>   -0.6079    1.0000 </r>
       <r>   -0.5664    1.0000 </r>
       <r>   -0.4796    1.0000 </r>
       <r>    5.6960    0.0000 </r>
       <r>    5.9109    0.0000 </r>
       <r>    6.1464    0.0000 </r>
       <r>    6.2212    0.0000 </r>
       <r>    6.3364    0.0000 </r>
       <r>    6.5480    0.0000 </r>
       <r>    6.9015    0.0000 </r>
       <r>    7.1196    0.0000 </r>
      </set>
      <set comment="kpoint 16">
       <r>  -19.7144    1.0000 </r>
       <r>  -19.7086    1.0000 </r>
       <r>  -19.6663    1.0000 </r>
       <r>  -19.6615    1.0000 </r>
       <r>  -12.5618    1.0000 </r>
       <r>  -12.5543    1.0000 </r>
       <r>  -12.4928    1.0000 </r>
       <r>  -12.4854    1.0000 </r>
       <r>   -6.9103    1.0000 </r>
       <r>   -6.9003    1.0000 </r>
       <r>   -6.8417    1.0000 </r>
       <r>   -6.8338    1.0000 </r>
       <r>   -6.7913    1.0000 </r>
       <r>   -6.7847    1.0000 </r>
       <r>   -6.3127    1.0000 </r>
       <r>   -6.3099    1.0000 </r>
       <r>   -6.2874    1.0000 </r>
       <r>   -6.2856    1.0000 </r>
       <r>   -6.2270    1.0000 </r>
       <r>   -6.2249    1.0000 </r>
       <r>   -1.2334    1.0000 </r>
       <r>   -1.2270    1.0000 </r>
       <r>   -1.0204    1.0000 </r>
       <r>   -1.0150    1.0000 </r>
       <r>   -0.8591    1.0000 </r>
       <r>   -0.8532    1.0000 </r>
       <r>   -0.7168    1.0000 </r>
       <r>   -0.7107    1.0000 </r>
       <r>   -0.6014    1.0000 </r>
       <r>   -0.5931    1.0000 </r>
       <r>   -0.5499    1.0000 </r>
       <r>   -0.5432    1.0000 </r>
       <r>    6.1562    0.0000 </r>
       <r>    6.1640    0.0000 </r>
       <r>    6.2381    0.0000 </r>
       <r>    6.2425    0.0000 </r>
       <r>    6.3115    0.0000 </r>
       <r>    6.3206    0.0000 </r>
       <r>    6.7870    0.0000 </r>
       <r>    6.7875    0.0000 </r>
      </set>
      <set comment="kpoint 17">
       <r>  -19.7180    1.0000 </r>
       <r>  -19.7012    1.0000 </r>
       <r>  -19.6759    1.0000 </r>
       <r>  -19.6558    1.0000 </r>
       <r>  -12.5828    1.0000 </r>
       <r>  -12.5330    1.0000 </r>
       <r>  -12.5038    1.0000 </r>
       <r>  -12.4740    1.0000 </r>
       <r>   -6.9999    1.0000 </r>
       <r>   -6.9769    1.0000 </r>
       <r>   -6.8068    1.0000 </r>
       <r>   -6.7632    1.0000 </r>
       <r>   -6.7208    1.0000 </r>
       <r>   -6.6793    1.0000 </r>
       <r>   -6.4279    1.0000 </r>
       <r>   -6.4222    1.0000 </r>
       <r>   -6.3942    1.0000 </r>
       <r>   -6.2067    1.0000 </r>
       <r>   -6.1925    1.0000 </r>
       <r>   -6.1141    1.0000 </r>
       <r>   -1.4387    1.0000 </r>
       <r>   -1.0230    1.0000 </r>
       <r>   -1.0167    1.0000 </r>
       <r>   -0.8886    1.0000 </r>
       <r>   -0.8706    1.0000 </r>
       <r>   -0.8307    1.0000 </r>
       <r>   -0.7932    1.0000 </r>
       <r>   -0.7088    1.0000 </r>
       <r>   -0.6452    1.0000 </r>
       <r>   -0.6303    1.0000 </r>
       <r>   -0.5857    1.0000 </r>
       <r>   -0.4966    1.0000 </r>
       <r>    5.7135    0.0000 </r>
       <r>    5.8233    0.0000 </r>
       <r>    6.0541    0.0000 </r>
       <r>    6.6522    0.0000 </r>
       <r>    6.7653    0.0000 </r>
       <r>    6.8041    0.0000 </r>
       <r>    6.8743    0.0000 </r>
       <r>    7.0408    0.0000 </r>
      </set>
      <set comment="kpoint 18">
       <r>  -19.7198    1.0000 </r>
       <r>  -19.6893    1.0000 </r>
       <r>  -19.6886    1.0000 </r>
       <r>  -19.6531    1.0000 </r>
       <r>  -12.5932    1.0000 </r>
       <r>  -12.5165    1.0000 </r>
       <r>  -12.5156    1.0000 </r>
       <r>  -12.4675    1.0000 </r>
       <r>   -7.0330    1.0000 </r>
       <r>   -7.0329    1.0000 </r>
       <r>   -6.8087    1.0000 </r>
       <r>   -6.5985    1.0000 </r>
       <r>   -6.5967    1.0000 </r>
       <r>   -6.5943    1.0000 </r>
       <r>   -6.5925    1.0000 </r>
       <r>   -6.5241    1.0000 </r>
       <r>   -6.5233    1.0000 </r>
       <r>   -6.1597    1.0000 </r>
       <r>   -6.1597    1.0000 </r>
       <r>   -6.0761    1.0000 </r>
       <r>   -1.5317    1.0000 </r>
       <r>   -0.8522    1.0000 </r>
       <r>   -0.8515    1.0000 </r>
       <r>   -0.8512    1.0000 </r>
       <r>   -0.8511    1.0000 </r>
       <r>   -0.8396    1.0000 </r>
       <r>   -0.8389    1.0000 </r>
       <r>   -0.8180    1.0000 </r>
       <r>   -0.8179    1.0000 </r>
       <r>   -0.6183    1.0000 </r>
       <r>   -0.6183    1.0000 </r>
       <r>   -0.4433    1.0000 </r>
       <r>    5.5408    0.0000 </r>
       <r>    5.6176    0.0000 </r>
       <r>    6.0111    0.0000 </r>
       <r>    7.1347    0.0000 </r>
       <r>    7.1372    0.0000 </r>
       <r>    7.1415    0.0000 </r>
       <r>    7.3109    0.0000 </r>
       <r>    7.3120    0.0000 </r>
      </set>
      <set comment="kpoint 19">
       <r>  -19.7897    1.0000 </r>
       <r>  -19.7003    1.0000 </r>
       <r>  -19.6772    1.0000 </r>
       <r>  -19.5969    1.0000 </r>
       <r>  -12.5562    1.0000 </r>
       <r>  -12.5303    1.0000 </r>
       <r>  -12.5047    1.0000 </r>
       <r>  -12.3983    1.0000 </r>
       <r>   -6.8104    1.0000 </r>
       <r>   -6.7972    1.0000 </r>
       <r>   -6.7971    1.0000 </r>
       <r>   -6.7452    1.0000 </r>
       <r>   -6.7091    1.0000 </r>
       <r>   -6.6630    1.0000 </r>
       <r>   -6.4458    1.0000 </r>
       <r>   -6.4342    1.0000 </r>
       <r>   -6.4145    1.0000 </r>
       <r>   -6.3146    1.0000 </r>
       <r>   -6.3146    1.0000 </r>
       <r>   -6.2837    1.0000 </r>
       <r>   -1.4131    1.0000 </r>
       <r>   -1.4131    1.0000 </r>
       <r>   -1.3514    1.0000 </r>
       <r>   -1.0112    1.0000 </r>
       <r>   -0.9952    1.0000 </r>
       <r>   -0.8701    1.0000 </r>
       <r>   -0.8014    1.0000 </r>
       <r>   -0.7222    1.0000 </r>
       <r>   -0.6498    1.0000 </r>
       <r>   -0.5039    1.0000 </r>
       <r>   -0.4205    1.0000 </r>
       <r>   -0.4205    1.0000 </r>
       <r>    5.0175    0.0000 </r>
       <r>    5.1530    0.0000 </r>
       <r>    5.1530    0.0000 </r>
       <r>    6.7136    0.0000 </r>
       <r>    6.8322    0.0000 </r>
       <r>    6.8370    0.0000 </r>
       <r>    6.9349    0.0000 </r>
       <r>    7.3376    0.0000 </r>
      </set>
      <set comment="kpoint 20">
       <r>  -19.7768    1.0000 </r>
       <r>  -19.7369    1.0000 </r>
       <r>  -19.6425    1.0000 </r>
       <r>  -19.6078    1.0000 </r>
       <r>  -12.5615    1.0000 </r>
       <r>  -12.5539    1.0000 </r>
       <r>  -12.4602    1.0000 </r>
       <r>  -12.4124    1.0000 </r>
       <r>   -6.8610    1.0000 </r>
       <r>   -6.8170    1.0000 </r>
       <r>   -6.7941    1.0000 </r>
       <r>   -6.7686    1.0000 </r>
       <r>   -6.7297    1.0000 </r>
       <r>   -6.5869    1.0000 </r>
       <r>   -6.5258    1.0000 </r>
       <r>   -6.4011    1.0000 </r>
       <r>   -6.3553    1.0000 </r>
       <r>   -6.3181    1.0000 </r>
       <r>   -6.3060    1.0000 </r>
       <r>   -6.2605    1.0000 </r>
       <r>   -1.3559    1.0000 </r>
       <r>   -1.3053    1.0000 </r>
       <r>   -1.1831    1.0000 </r>
       <r>   -1.1398    1.0000 </r>
       <r>   -1.0615    1.0000 </r>
       <r>   -0.9729    1.0000 </r>
       <r>   -0.8337    1.0000 </r>
       <r>   -0.6917    1.0000 </r>
       <r>   -0.6202    1.0000 </r>
       <r>   -0.5624    1.0000 </r>
       <r>   -0.4725    1.0000 </r>
       <r>   -0.4446    1.0000 </r>
       <r>    5.2860    0.0000 </r>
       <r>    5.4201    0.0000 </r>
       <r>    5.5404    0.0000 </r>
       <r>    5.9726    0.0000 </r>
       <r>    6.2697    0.0000 </r>
       <r>    6.6446    0.0000 </r>
       <r>    6.8093    0.0000 </r>
       <r>    7.3739    0.0000 </r>
      </set>
      <set comment="kpoint 21">
       <r>  -19.7682    1.0000 </r>
       <r>  -19.7495    1.0000 </r>
       <r>  -19.6312    1.0000 </r>
       <r>  -19.6151    1.0000 </r>
       <r>  -12.5641    1.0000 </r>
       <r>  -12.5564    1.0000 </r>
       <r>  -12.4452    1.0000 </r>
       <r>  -12.4218    1.0000 </r>
       <r>   -6.8692    1.0000 </r>
       <r>   -6.8496    1.0000 </r>
       <r>   -6.8476    1.0000 </r>
       <r>   -6.7057    1.0000 </r>
       <r>   -6.6442    1.0000 </r>
       <r>   -6.6283    1.0000 </r>
       <r>   -6.5180    1.0000 </r>
       <r>   -6.4663    1.0000 </r>
       <r>   -6.3854    1.0000 </r>
       <r>   -6.2934    1.0000 </r>
       <r>   -6.2632    1.0000 </r>
       <r>   -6.2516    1.0000 </r>
       <r>   -1.2834    1.0000 </r>
       <r>   -1.2425    1.0000 </r>
       <r>   -1.2101    1.0000 </r>
       <r>   -1.1626    1.0000 </r>
       <r>   -1.0869    1.0000 </r>
       <r>   -0.9071    1.0000 </r>
       <r>   -0.9053    1.0000 </r>
       <r>   -0.8110    1.0000 </r>
       <r>   -0.5676    1.0000 </r>
       <r>   -0.5200    1.0000 </r>
       <r>   -0.4903    1.0000 </r>
       <r>   -0.4801    1.0000 </r>
       <r>    5.4012    0.0000 </r>
       <r>    5.6294    0.0000 </r>
       <r>    5.7089    0.0000 </r>
       <r>    5.8741    0.0000 </r>
       <r>    6.0760    0.0000 </r>
       <r>    6.2193    0.0000 </r>
       <r>    6.9230    0.0000 </r>
       <r>    7.1445    0.0000 </r>
      </set>
      <set comment="kpoint 22">
       <r>  -19.7865    1.0000 </r>
       <r>  -19.7149    1.0000 </r>
       <r>  -19.6632    1.0000 </r>
       <r>  -19.5995    1.0000 </r>
       <r>  -12.5582    1.0000 </r>
       <r>  -12.5407    1.0000 </r>
       <r>  -12.4888    1.0000 </r>
       <r>  -12.4014    1.0000 </r>
       <r>   -6.8390    1.0000 </r>
       <r>   -6.8389    1.0000 </r>
       <r>   -6.8121    1.0000 </r>
       <r>   -6.7196    1.0000 </r>
       <r>   -6.6405    1.0000 </r>
       <r>   -6.5901    1.0000 </r>
       <r>   -6.5466    1.0000 </r>
       <r>   -6.5077    1.0000 </r>
       <r>   -6.3702    1.0000 </r>
       <r>   -6.3097    1.0000 </r>
       <r>   -6.2770    1.0000 </r>
       <r>   -6.2765    1.0000 </r>
       <r>   -1.3721    1.0000 </r>
       <r>   -1.3707    1.0000 </r>
       <r>   -1.3396    1.0000 </r>
       <r>   -1.0348    1.0000 </r>
       <r>   -1.0109    1.0000 </r>
       <r>   -0.9805    1.0000 </r>
       <r>   -0.7298    1.0000 </r>
       <r>   -0.7007    1.0000 </r>
       <r>   -0.6310    1.0000 </r>
       <r>   -0.5795    1.0000 </r>
       <r>   -0.4234    1.0000 </r>
       <r>   -0.4234    1.0000 </r>
       <r>    5.1073    0.0000 </r>
       <r>    5.1234    0.0000 </r>
       <r>    5.3438    0.0000 </r>
       <r>    6.2783    0.0000 </r>
       <r>    6.7172    0.0000 </r>
       <r>    6.8975    0.0000 </r>
       <r>    7.1055    0.0000 </r>
       <r>    7.4595    0.0000 </r>
      </set>
      <set comment="kpoint 23">
       <r>  -19.7752    1.0000 </r>
       <r>  -19.7029    1.0000 </r>
       <r>  -19.6732    1.0000 </r>
       <r>  -19.6090    1.0000 </r>
       <r>  -12.5608    1.0000 </r>
       <r>  -12.5382    1.0000 </r>
       <r>  -12.5049    1.0000 </r>
       <r>  -12.4140    1.0000 </r>
       <r>   -6.8691    1.0000 </r>
       <r>   -6.8619    1.0000 </r>
       <r>   -6.8104    1.0000 </r>
       <r>   -6.7744    1.0000 </r>
       <r>   -6.6841    1.0000 </r>
       <r>   -6.6475    1.0000 </r>
       <r>   -6.5252    1.0000 </r>
       <r>   -6.4209    1.0000 </r>
       <r>   -6.3290    1.0000 </r>
       <r>   -6.3026    1.0000 </r>
       <r>   -6.2603    1.0000 </r>
       <r>   -6.2374    1.0000 </r>
       <r>   -1.3355    1.0000 </r>
       <r>   -1.2933    1.0000 </r>
       <r>   -1.1706    1.0000 </r>
       <r>   -1.0962    1.0000 </r>
       <r>   -1.0732    1.0000 </r>
       <r>   -0.9028    1.0000 </r>
       <r>   -0.7381    1.0000 </r>
       <r>   -0.7211    1.0000 </r>
       <r>   -0.6073    1.0000 </r>
       <r>   -0.5648    1.0000 </r>
       <r>   -0.4717    1.0000 </r>
       <r>   -0.4518    1.0000 </r>
       <r>    5.2942    0.0000 </r>
       <r>    5.4444    0.0000 </r>
       <r>    5.6288    0.0000 </r>
       <r>    6.2054    0.0000 </r>
       <r>    6.5702    0.0000 </r>
       <r>    6.6975    0.0000 </r>
       <r>    6.7141    0.0000 </r>
       <r>    7.3310    0.0000 </r>
      </set>
      <set comment="kpoint 24">
       <r>  -19.7621    1.0000 </r>
       <r>  -19.7343    1.0000 </r>
       <r>  -19.6441    1.0000 </r>
       <r>  -19.6200    1.0000 </r>
       <r>  -12.5666    1.0000 </r>
       <r>  -12.5583    1.0000 </r>
       <r>  -12.4633    1.0000 </r>
       <r>  -12.4282    1.0000 </r>
       <r>   -6.9196    1.0000 </r>
       <r>   -6.8964    1.0000 </r>
       <r>   -6.8483    1.0000 </r>
       <r>   -6.7674    1.0000 </r>
       <r>   -6.6496    1.0000 </r>
       <r>   -6.5600    1.0000 </r>
       <r>   -6.5178    1.0000 </r>
       <r>   -6.4420    1.0000 </r>
       <r>   -6.3851    1.0000 </r>
       <r>   -6.2876    1.0000 </r>
       <r>   -6.2390    1.0000 </r>
       <r>   -6.2044    1.0000 </r>
       <r>   -1.2346    1.0000 </r>
       <r>   -1.1937    1.0000 </r>
       <r>   -1.1102    1.0000 </r>
       <r>   -1.0780    1.0000 </r>
       <r>   -1.0745    1.0000 </r>
       <r>   -1.0183    1.0000 </r>
       <r>   -0.9075    1.0000 </r>
       <r>   -0.7443    1.0000 </r>
       <r>   -0.6054    1.0000 </r>
       <r>   -0.5247    1.0000 </r>
       <r>   -0.5082    1.0000 </r>
       <r>   -0.4844    1.0000 </r>
       <r>    5.4363    0.0000 </r>
       <r>    5.7951    0.0000 </r>
       <r>    5.8147    0.0000 </r>
       <r>    6.1295    0.0000 </r>
       <r>    6.3598    0.0000 </r>
       <r>    6.6384    0.0000 </r>
       <r>    6.8767    0.0000 </r>
       <r>    6.9906    0.0000 </r>
      </set>
      <set comment="kpoint 25">
       <r>  -19.7604    1.0000 </r>
       <r>  -19.7367    1.0000 </r>
       <r>  -19.6418    1.0000 </r>
       <r>  -19.6215    1.0000 </r>
       <r>  -12.5668    1.0000 </r>
       <r>  -12.5595    1.0000 </r>
       <r>  -12.4596    1.0000 </r>
       <r>  -12.4304    1.0000 </r>
       <r>   -6.9214    1.0000 </r>
       <r>   -6.8973    1.0000 </r>
       <r>   -6.8318    1.0000 </r>
       <r>   -6.7937    1.0000 </r>
       <r>   -6.6429    1.0000 </r>
       <r>   -6.5640    1.0000 </r>
       <r>   -6.5213    1.0000 </r>
       <r>   -6.4371    1.0000 </r>
       <r>   -6.3613    1.0000 </r>
       <r>   -6.3015    1.0000 </r>
       <r>   -6.2364    1.0000 </r>
       <r>   -6.2080    1.0000 </r>
       <r>   -1.2340    1.0000 </r>
       <r>   -1.1883    1.0000 </r>
       <r>   -1.1141    1.0000 </r>
       <r>   -1.0808    1.0000 </r>
       <r>   -1.0748    1.0000 </r>
       <r>   -0.9950    1.0000 </r>
       <r>   -0.9133    1.0000 </r>
       <r>   -0.7643    1.0000 </r>
       <r>   -0.5953    1.0000 </r>
       <r>   -0.5239    1.0000 </r>
       <r>   -0.5171    1.0000 </r>
       <r>   -0.4863    1.0000 </r>
       <r>    5.4728    0.0000 </r>
       <r>    5.7840    0.0000 </r>
       <r>    5.8315    0.0000 </r>
       <r>    6.1556    0.0000 </r>
       <r>    6.3209    0.0000 </r>
       <r>    6.6304    0.0000 </r>
       <r>    6.8395    0.0000 </r>
       <r>    6.9691    0.0000 </r>
      </set>
      <set comment="kpoint 26">
       <r>  -19.7746    1.0000 </r>
       <r>  -19.7058    1.0000 </r>
       <r>  -19.6704    1.0000 </r>
       <r>  -19.6096    1.0000 </r>
       <r>  -12.5609    1.0000 </r>
       <r>  -12.5417    1.0000 </r>
       <r>  -12.5006    1.0000 </r>
       <r>  -12.4147    1.0000 </r>
       <r>   -6.8740    1.0000 </r>
       <r>   -6.8564    1.0000 </r>
       <r>   -6.8109    1.0000 </r>
       <r>   -6.7677    1.0000 </r>
       <r>   -6.6857    1.0000 </r>
       <r>   -6.6803    1.0000 </r>
       <r>   -6.4934    1.0000 </r>
       <r>   -6.4207    1.0000 </r>
       <r>   -6.3243    1.0000 </r>
       <r>   -6.3047    1.0000 </r>
       <r>   -6.2629    1.0000 </r>
       <r>   -6.2414    1.0000 </r>
       <r>   -1.3319    1.0000 </r>
       <r>   -1.2920    1.0000 </r>
       <r>   -1.1625    1.0000 </r>
       <r>   -1.1079    1.0000 </r>
       <r>   -1.0662    1.0000 </r>
       <r>   -0.9076    1.0000 </r>
       <r>   -0.7298    1.0000 </r>
       <r>   -0.7236    1.0000 </r>
       <r>   -0.6164    1.0000 </r>
       <r>   -0.5614    1.0000 </r>
       <r>   -0.4736    1.0000 </r>
       <r>   -0.4567    1.0000 </r>
       <r>    5.3137    0.0000 </r>
       <r>    5.4577    0.0000 </r>
       <r>    5.6364    0.0000 </r>
       <r>    6.2067    0.0000 </r>
       <r>    6.5445    0.0000 </r>
       <r>    6.6548    0.0000 </r>
       <r>    6.7206    0.0000 </r>
       <r>    7.3131    0.0000 </r>
      </set>
      <set comment="kpoint 27">
       <r>  -19.7508    1.0000 </r>
       <r>  -19.6968    1.0000 </r>
       <r>  -19.6778    1.0000 </r>
       <r>  -19.6296    1.0000 </r>
       <r>  -12.5657    1.0000 </r>
       <r>  -12.5352    1.0000 </r>
       <r>  -12.5181    1.0000 </r>
       <r>  -12.4417    1.0000 </r>
       <r>   -6.9183    1.0000 </r>
       <r>   -6.9135    1.0000 </r>
       <r>   -6.8429    1.0000 </r>
       <r>   -6.8261    1.0000 </r>
       <r>   -6.6161    1.0000 </r>
       <r>   -6.5898    1.0000 </r>
       <r>   -6.5787    1.0000 </r>
       <r>   -6.4978    1.0000 </r>
       <r>   -6.3164    1.0000 </r>
       <r>   -6.2630    1.0000 </r>
       <r>   -6.2171    1.0000 </r>
       <r>   -6.1350    1.0000 </r>
       <r>   -1.1735    1.0000 </r>
       <r>   -1.1404    1.0000 </r>
       <r>   -1.1368    1.0000 </r>
       <r>   -1.1147    1.0000 </r>
       <r>   -1.0089    1.0000 </r>
       <r>   -0.8880    1.0000 </r>
       <r>   -0.8733    1.0000 </r>
       <r>   -0.7117    1.0000 </r>
       <r>   -0.5475    1.0000 </r>
       <r>   -0.5393    1.0000 </r>
       <r>   -0.5248    1.0000 </r>
       <r>   -0.5027    1.0000 </r>
[...]
       <r>   -0.9189    1.0000 </r>
       <r>   -0.8934    1.0000 </r>
       <r>   -0.7304    1.0000 </r>
       <r>   -0.6757    1.0000 </r>
       <r>   -0.6203    1.0000 </r>
       <r>   -0.5983    1.0000 </r>
       <r>   -0.5791    1.0000 </r>
       <r>   -0.5679    1.0000 </r>
       <r>    5.9184    0.0000 </r>
       <r>    6.0058    0.0000 </r>
       <r>    6.0394    0.0000 </r>
       <r>    6.3053    0.0000 </r>
       <r>    6.6681    0.0000 </r>
       <r>    6.7063    0.0000 </r>
       <r>    6.7466    0.0000 </r>
       <r>    6.7904    0.0000 </r>
      </set>
      <set comment="kpoint 145">
       <r>  -19.7324    1.0000 </r>
       <r>  -19.6932    1.0000 </r>
       <r>  -19.6816    1.0000 </r>
       <r>  -19.6449    1.0000 </r>
       <r>  -12.5686    1.0000 </r>
       <r>  -12.5317    1.0000 </r>
       <r>  -12.5210    1.0000 </r>
       <r>  -12.4627    1.0000 </r>
       <r>   -6.9522    1.0000 </r>
       <r>   -6.8922    1.0000 </r>
       <r>   -6.8579    1.0000 </r>
       <r>   -6.8461    1.0000 </r>
       <r>   -6.6973    1.0000 </r>
       <r>   -6.6097    1.0000 </r>
       <r>   -6.5967    1.0000 </r>
       <r>   -6.3317    1.0000 </r>
       <r>   -6.3238    1.0000 </r>
       <r>   -6.2466    1.0000 </r>
       <r>   -6.1859    1.0000 </r>
       <r>   -6.1707    1.0000 </r>
       <r>   -1.1891    1.0000 </r>
       <r>   -1.1258    1.0000 </r>
       <r>   -1.1125    1.0000 </r>
       <r>   -1.0384    1.0000 </r>
       <r>   -1.0238    1.0000 </r>
       <r>   -0.8432    1.0000 </r>
       <r>   -0.7455    1.0000 </r>
       <r>   -0.6991    1.0000 </r>
       <r>   -0.5978    1.0000 </r>
       <r>   -0.5470    1.0000 </r>
       <r>   -0.5407    1.0000 </r>
       <r>   -0.5381    1.0000 </r>
       <r>    5.8158    0.0000 </r>
       <r>    6.0668    0.0000 </r>
       <r>    6.3636    0.0000 </r>
       <r>    6.4029    0.0000 </r>
       <r>    6.4849    0.0000 </r>
       <r>    6.5557    0.0000 </r>
       <r>    6.5811    0.0000 </r>
       <r>    6.6614    0.0000 </r>
      </set>
      <set comment="kpoint 146">
       <r>  -19.7323    1.0000 </r>
       <r>  -19.6976    1.0000 </r>
       <r>  -19.6758    1.0000 </r>
       <r>  -19.6464    1.0000 </r>
       <r>  -12.5580    1.0000 </r>
       <r>  -12.5504    1.0000 </r>
       <r>  -12.5089    1.0000 </r>
       <r>  -12.4671    1.0000 </r>
       <r>   -6.9459    1.0000 </r>
       <r>   -6.8924    1.0000 </r>
       <r>   -6.8758    1.0000 </r>
       <r>   -6.7892    1.0000 </r>
       <r>   -6.6990    1.0000 </r>
       <r>   -6.6299    1.0000 </r>
       <r>   -6.5049    1.0000 </r>
       <r>   -6.4478    1.0000 </r>
       <r>   -6.4291    1.0000 </r>
       <r>   -6.2260    1.0000 </r>
       <r>   -6.1667    1.0000 </r>
       <r>   -6.1050    1.0000 </r>
       <r>   -1.2809    1.0000 </r>
       <r>   -1.1178    1.0000 </r>
       <r>   -1.0811    1.0000 </r>
       <r>   -1.0287    1.0000 </r>
       <r>   -1.0185    1.0000 </r>
       <r>   -0.7679    1.0000 </r>
       <r>   -0.7490    1.0000 </r>
       <r>   -0.7309    1.0000 </r>
       <r>   -0.6242    1.0000 </r>
       <r>   -0.5517    1.0000 </r>
       <r>   -0.5377    1.0000 </r>
       <r>   -0.4993    1.0000 </r>
       <r>    5.8283    0.0000 </r>
       <r>    5.8899    0.0000 </r>
       <r>    6.1631    0.0000 </r>
       <r>    6.2190    0.0000 </r>
       <r>    6.4000    0.0000 </r>
       <r>    6.7410    0.0000 </r>
       <r>    6.8244    0.0000 </r>
       <r>    7.0163    0.0000 </r>
      </set>
     </set>
    </set>
   </array>
  </eigenvalues>
  <separator name="orbital magnetization" >
   <v name="MAGDIPOLOUT">      0.00000000      0.00000000      0.00000000</v>
  </separator>
  <dos>
   <i name="efermi">     -0.28983423 </i>
   <total>
    <array>
     <dimension dim="1">gridpoints</dimension>
     <dimension dim="2">spin</dimension>
     <field>energy</field>
     <field>total</field>
     <field>integrated</field>
     <set>
      <set comment="spin 1">
       <r>   -21.1703     0.0000     0.0000 </r>
       <r>   -21.0696     0.0000     0.0000 </r>
       <r>   -20.9688     0.0000     0.0000 </r>
       <r>   -20.8681     0.0000     0.0000 </r>
       <r>   -20.7673     0.0000     0.0000 </r>
       <r>   -20.6666     0.0000     0.0000 </r>
       <r>   -20.5658     0.0000     0.0000 </r>
       <r>   -20.4651     0.0000     0.0000 </r>
       <r>   -20.3643     0.0000     0.0000 </r>
       <r>   -20.2636     0.0000     0.0000 </r>
       <r>   -20.1628     0.0000     0.0000 </r>
       <r>   -20.0621     0.0000     0.0000 </r>
       <r>   -19.9613     0.0000     0.0000 </r>
       <r>   -19.8606     0.0000     0.0000 </r>
       <r>   -19.7598     4.5006     0.4534 </r>
       <r>   -19.6591    49.0361     5.9336 </r>
       <r>   -19.5583     9.3039     8.0000 </r>
       <r>   -19.4576     0.0000     8.0000 </r>
       <r>   -19.3568     0.0000     8.0000 </r>
       <r>   -19.2561     0.0000     8.0000 </r>
       <r>   -19.1553     0.0000     8.0000 </r>
       <r>   -19.0546     0.0000     8.0000 </r>
       <r>   -18.9538     0.0000     8.0000 </r>
       <r>   -18.8531     0.0000     8.0000 </r>
       <r>   -18.7523     0.0000     8.0000 </r>
       <r>   -18.6516     0.0000     8.0000 </r>
       <r>   -18.5508     0.0000     8.0000 </r>
       <r>   -18.4501     0.0000     8.0000 </r>
       <r>   -18.3493     0.0000     8.0000 </r>
       <r>   -18.2486     0.0000     8.0000 </r>
       <r>   -18.1478     0.0000     8.0000 </r>
       <r>   -18.0471     0.0000     8.0000 </r>
       <r>   -17.9463     0.0000     8.0000 </r>
       <r>   -17.8456     0.0000     8.0000 </r>
       <r>   -17.7448     0.0000     8.0000 </r>
       <r>   -17.6441     0.0000     8.0000 </r>
       <r>   -17.5433     0.0000     8.0000 </r>
       <r>   -17.4426     0.0000     8.0000 </r>
       <r>   -17.3418     0.0000     8.0000 </r>
       <r>   -17.2411     0.0000     8.0000 </r>
       <r>   -17.1403     0.0000     8.0000 </r>
       <r>   -17.0396     0.0000     8.0000 </r>
       <r>   -16.9388     0.0000     8.0000 </r>
       <r>   -16.8381     0.0000     8.0000 </r>
       <r>   -16.7373     0.0000     8.0000 </r>
       <r>   -16.6366     0.0000     8.0000 </r>
       <r>   -16.5358     0.0000     8.0000 </r>
       <r>   -16.4351     0.0000     8.0000 </r>
       <r>   -16.3343     0.0000     8.0000 </r>
       <r>   -16.2336     0.0000     8.0000 </r>
       <r>   -16.1328     0.0000     8.0000 </r>
       <r>   -16.0321     0.0000     8.0000 </r>
       <r>   -15.9313     0.0000     8.0000 </r>
       <r>   -15.8306     0.0000     8.0000 </r>
       <r>   -15.7298     0.0000     8.0000 </r>
       <r>   -15.6291     0.0000     8.0000 </r>
       <r>   -15.5283     0.0000     8.0000 </r>
       <r>   -15.4276     0.0000     8.0000 </r>
       <r>   -15.3268     0.0000     8.0000 </r>
       <r>   -15.2261     0.0000     8.0000 </r>
       <r>   -15.1253     0.0000     8.0000 </r>
       <r>   -15.0246     0.0000     8.0000 </r>
       <r>   -14.9238     0.0000     8.0000 </r>
       <r>   -14.8231     0.0000     8.0000 </r>
       <r>   -14.7223     0.0000     8.0000 </r>
       <r>   -14.6216     0.0000     8.0000 </r>
       <r>   -14.5208     0.0000     8.0000 </r>
       <r>   -14.4201     0.0000     8.0000 </r>
       <r>   -14.3193     0.0000     8.0000 </r>
       <r>   -14.2186     0.0000     8.0000 </r>
       <r>   -14.1178     0.0000     8.0000 </r>
       <r>   -14.0171     0.0000     8.0000 </r>
       <r>   -13.9163     0.0000     8.0000 </r>
       <r>   -13.8156     0.0000     8.0000 </r>
       <r>   -13.7148     0.0000     8.0000 </r>
       <r>   -13.6141     0.0000     8.0000 </r>
       <r>   -13.5133     0.0000     8.0000 </r>
       <r>   -13.4126     0.0000     8.0000 </r>
       <r>   -13.3118     0.0000     8.0000 </r>
       <r>   -13.2111     0.0000     8.0000 </r>
       <r>   -13.1103     0.0000     8.0000 </r>
       <r>   -13.0096     0.0000     8.0000 </r>
       <r>   -12.9088     0.0000     8.0000 </r>
       <r>   -12.8081     0.0000     8.0000 </r>
       <r>   -12.7073     0.0000     8.0000 </r>
       <r>   -12.6066     0.0078     8.0008 </r>
       <r>   -12.5058    48.0987    12.9224 </r>
       <r>   -12.4051    20.7052    15.9057 </r>
       <r>   -12.3043     0.0000    16.0000 </r>
       <r>   -12.2036     0.0000    16.0000 </r>
       <r>   -12.1028     0.0000    16.0000 </r>
       <r>   -12.0021     0.0000    16.0000 </r>
       <r>   -11.9013     0.0000    16.0000 </r>
       <r>   -11.8006     0.0000    16.0000 </r>
       <r>   -11.6998     0.0000    16.0000 </r>
       <r>   -11.5991     0.0000    16.0000 </r>
       <r>   -11.4983     0.0000    16.0000 </r>
       <r>   -11.3976     0.0000    16.0000 </r>
       <r>   -11.2968     0.0000    16.0000 </r>
       <r>   -11.1961     0.0000    16.0000 </r>
       <r>   -11.0953     0.0000    16.0000 </r>
       <r>   -10.9946     0.0000    16.0000 </r>
       <r>   -10.8938     0.0000    16.0000 </r>
       <r>   -10.7931     0.0000    16.0000 </r>
       <r>   -10.6923     0.0000    16.0000 </r>
       <r>   -10.5916     0.0000    16.0000 </r>
       <r>   -10.4908     0.0000    16.0000 </r>
       <r>   -10.3901     0.0000    16.0000 </r>
       <r>   -10.2893     0.0000    16.0000 </r>
       <r>   -10.1886     0.0000    16.0000 </r>
       <r>   -10.0878     0.0000    16.0000 </r>
       <r>    -9.9871     0.0000    16.0000 </r>
       <r>    -9.8863     0.0000    16.0000 </r>
       <r>    -9.7856     0.0000    16.0000 </r>
       <r>    -9.6848     0.0000    16.0000 </r>
       <r>    -9.5841     0.0000    16.0000 </r>
       <r>    -9.4833     0.0000    16.0000 </r>
       <r>    -9.3825     0.0000    16.0000 </r>
       <r>    -9.2818     0.0000    16.0000 </r>
       <r>    -9.1810     0.0000    16.0000 </r>
       <r>    -9.0803     0.0000    16.0000 </r>
       <r>    -8.9795     0.0000    16.0000 </r>
       <r>    -8.8788     0.0000    16.0000 </r>
       <r>    -8.7780     0.0000    16.0000 </r>
       <r>    -8.6773     0.0000    16.0000 </r>
       <r>    -8.5765     0.0000    16.0000 </r>
       <r>    -8.4758     0.0000    16.0000 </r>
       <r>    -8.3750     0.0000    16.0000 </r>
       <r>    -8.2743     0.0000    16.0000 </r>
       <r>    -8.1735     0.0000    16.0000 </r>
       <r>    -8.0728     0.0000    16.0000 </r>
       <r>    -7.9720     0.0000    16.0000 </r>
       <r>    -7.8713     0.0000    16.0000 </r>
       <r>    -7.7705     0.0000    16.0000 </r>
       <r>    -7.6698     0.0000    16.0000 </r>
       <r>    -7.5690     0.0000    16.0000 </r>
       <r>    -7.4683     0.0000    16.0000 </r>
       <r>    -7.3675     0.0000    16.0000 </r>
       <r>    -7.2668     0.0000    16.0000 </r>
       <r>    -7.1660     0.0000    16.0000 </r>
       <r>    -7.0653     0.0000    16.0000 </r>
       <r>    -6.9645     7.5640    16.7621 </r>
       <r>    -6.8638    29.1877    20.0241 </r>
       <r>    -6.7630    27.6882    23.7064 </r>
       <r>    -6.6623    17.6095    26.0798 </r>
       <r>    -6.5615    16.4912    28.2310 </r>
       <r>    -6.4608    15.7114    30.2219 </r>
       <r>    -6.3600    16.6248    32.3972 </r>
       <r>    -6.2593    23.8585    35.3483 </r>
       <r>    -6.1585    26.8411    38.7669 </r>
       <r>    -6.0578     6.9610    40.0000 </r>
       <r>    -5.9570     0.0000    40.0000 </r>
       <r>    -5.8563     0.0000    40.0000 </r>
       <r>    -5.7555     0.0000    40.0000 </r>
       <r>    -5.6548     0.0000    40.0000 </r>
       <r>    -5.5540     0.0000    40.0000 </r>
       <r>    -5.4533     0.0000    40.0000 </r>
       <r>    -5.3525     0.0000    40.0000 </r>
       <r>    -5.2518     0.0000    40.0000 </r>
       <r>    -5.1510     0.0000    40.0000 </r>
       <r>    -5.0503     0.0000    40.0000 </r>
       <r>    -4.9495     0.0000    40.0000 </r>
       <r>    -4.8488     0.0000    40.0000 </r>
       <r>    -4.7480     0.0000    40.0000 </r>
       <r>    -4.6473     0.0000    40.0000 </r>
       <r>    -4.5465     0.0000    40.0000 </r>
       <r>    -4.4458     0.0000    40.0000 </r>
       <r>    -4.3450     0.0000    40.0000 </r>
       <r>    -4.2443     0.0000    40.0000 </r>
       <r>    -4.1435     0.0000    40.0000 </r>
       <r>    -4.0428     0.0000    40.0000 </r>
       <r>    -3.9420     0.0000    40.0000 </r>
       <r>    -3.8413     0.0000    40.0000 </r>
       <r>    -3.7405     0.0000    40.0000 </r>
       <r>    -3.6398     0.0000    40.0000 </r>
       <r>    -3.5390     0.0000    40.0000 </r>
       <r>    -3.4383     0.0000    40.0000 </r>
       <r>    -3.3375     0.0000    40.0000 </r>
       <r>    -3.2368     0.0000    40.0000 </r>
       <r>    -3.1360     0.0000    40.0000 </r>
       <r>    -3.0353     0.0000    40.0000 </r>
       <r>    -2.9345     0.0000    40.0000 </r>
       <r>    -2.8338     0.0000    40.0000 </r>
       <r>    -2.7330     0.0000    40.0000 </r>
       <r>    -2.6323     0.0000    40.0000 </r>
       <r>    -2.5315     0.0000    40.0000 </r>
       <r>    -2.4308     0.0000    40.0000 </r>
       <r>    -2.3300     0.0000    40.0000 </r>
       <r>    -2.2293     0.0000    40.0000 </r>
       <r>    -2.1285     0.0000    40.0000 </r>
       <r>    -2.0278     0.0000    40.0000 </r>
       <r>    -1.9270     0.0000    40.0000 </r>
       <r>    -1.8263     0.0000    40.0000 </r>
       <r>    -1.7255     0.0000    40.0000 </r>
       <r>    -1.6248     0.0000    40.0000 </r>
       <r>    -1.5240     0.0723    40.0073 </r>
       <r>    -1.4233     1.4100    40.1768 </r>
       <r>    -1.3225     6.2422    40.8790 </r>
       <r>    -1.2218    10.4068    42.0624 </r>
       <r>    -1.1210    15.6488    43.9795 </r>
       <r>    -1.0203    30.2692    47.5637 </r>
       <r>    -0.9195    15.1477    49.7762 </r>
       <r>    -0.8188    17.5470    52.0596 </r>
       <r>    -0.7180    19.4173    54.5119 </r>
       <r>    -0.6173    20.7911    57.0948 </r>
       <r>    -0.5165    44.3545    62.2675 </r>
       <r>    -0.4158    10.2333    63.9478 </r>
       <r>    -0.3150     0.0000    64.0000 </r>
       <r>    -0.2143     0.0000    64.0000 </r>
       <r>    -0.1135     0.0000    64.0000 </r>
       <r>    -0.0128     0.0000    64.0000 </r>
       <r>     0.0880     0.0000    64.0000 </r>
       <r>     0.1887     0.0000    64.0000 </r>
       <r>     0.2895     0.0000    64.0000 </r>
       <r>     0.3902     0.0000    64.0000 </r>
       <r>     0.4910     0.0000    64.0000 </r>
       <r>     0.5917     0.0000    64.0000 </r>
       <r>     0.6925     0.0000    64.0000 </r>
       <r>     0.7932     0.0000    64.0000 </r>
       <r>     0.8940     0.0000    64.0000 </r>
       <r>     0.9947     0.0000    64.0000 </r>
       <r>     1.0955     0.0000    64.0000 </r>
       <r>     1.1962     0.0000    64.0000 </r>
       <r>     1.2970     0.0000    64.0000 </r>
       <r>     1.3977     0.0000    64.0000 </r>
       <r>     1.4985     0.0000    64.0000 </r>
       <r>     1.5992     0.0000    64.0000 </r>
       <r>     1.7000     0.0000    64.0000 </r>
       <r>     1.8007     0.0000    64.0000 </r>
       <r>     1.9015     0.0000    64.0000 </r>
       <r>     2.0022     0.0000    64.0000 </r>
       <r>     2.1030     0.0000    64.0000 </r>
       <r>     2.2037     0.0000    64.0000 </r>
       <r>     2.3045     0.0000    64.0000 </r>
       <r>     2.4052     0.0000    64.0000 </r>
       <r>     2.5060     0.0000    64.0000 </r>
       <r>     2.6067     0.0000    64.0000 </r>
       <r>     2.7075     0.0000    64.0000 </r>
       <r>     2.8082     0.0000    64.0000 </r>
       <r>     2.9090     0.0000    64.0000 </r>
       <r>     3.0097     0.0000    64.0000 </r>
       <r>     3.1105     0.0000    64.0000 </r>
       <r>     3.2112     0.0000    64.0000 </r>
       <r>     3.3120     0.0000    64.0000 </r>
       <r>     3.4127     0.0000    64.0000 </r>
       <r>     3.5135     0.0000    64.0000 </r>
       <r>     3.6142     0.0000    64.0000 </r>
       <r>     3.7150     0.0000    64.0000 </r>
       <r>     3.8157     0.0000    64.0000 </r>
       <r>     3.9165     0.0000    64.0000 </r>
       <r>     4.0172     0.0000    64.0000 </r>
       <r>     4.1180     0.0000    64.0000 </r>
       <r>     4.2187     0.0000    64.0000 </r>
       <r>     4.3195     0.0000    64.0000 </r>
       <r>     4.4202     0.0000    64.0000 </r>
       <r>     4.5210     0.0000    64.0000 </r>
       <r>     4.6217     0.0000    64.0000 </r>
       <r>     4.7225     0.0000    64.0000 </r>
       <r>     4.8232     0.0689    64.0069 </r>
       <r>     4.9240     0.0000    64.0069 </r>
       <r>     5.0247     0.3165    64.0388 </r>
       <r>     5.1255     0.7721    64.1264 </r>
       <r>     5.2262     1.2438    64.2573 </r>
       <r>     5.3270     0.9982    64.3992 </r>
       <r>     5.4277     2.0646    64.6316 </r>
       <r>     5.5285     1.1909    64.7797 </r>
       <r>     5.6292     3.4956    65.1577 </r>
       <r>     5.7300     4.6736    65.7278 </r>
       <r>     5.8307     5.6082    66.4192 </r>
       <r>     5.9315     6.5580    67.2232 </r>
       <r>     6.0322     8.7521    68.4305 </r>
       <r>     6.1330     8.8833    69.5201 </r>
       <r>     6.2337     8.2628    70.5825 </r>
       <r>     6.3345     9.0415    71.7165 </r>
       <r>     6.4352     7.2756    72.6220 </r>
       <r>     6.5360     8.1639    73.6420 </r>
       <r>     6.6367     8.5924    74.7546 </r>
       <r>     6.7375     9.5700    75.9781 </r>
       <r>     6.8383     9.7711    77.2900 </r>
       <r>     6.9390     8.6274    78.3692 </r>
       <r>     7.0398     3.8824    78.9606 </r>
       <r>     7.1405     4.5211    79.4972 </r>
       <r>     7.2413     1.9707    79.7749 </r>
       <r>     7.3420     0.8566    79.8710 </r>
       <r>     7.4428     0.7104    79.9605 </r>
       <r>     7.5435     0.0000    79.9861 </r>
       <r>     7.6443     0.0000    79.9861 </r>
       <r>     7.7450     0.1379    80.0000 </r>
       <r>     7.8458     0.0000    80.0000 </r>
       <r>     7.9465     0.0000    80.0000 </r>
       <r>     8.0473     0.0000    80.0000 </r>
       <r>     8.1480     0.0000    80.0000 </r>
       <r>     8.2488     0.0000    80.0000 </r>
       <r>     8.3495     0.0000    80.0000 </r>
       <r>     8.4503     0.0000    80.0000 </r>
       <r>     8.5510     0.0000    80.0000 </r>
       <r>     8.6518     0.0000    80.0000 </r>
       <r>     8.7525     0.0000    80.0000 </r>
       <r>     8.8533     0.0000    80.0000 </r>
       <r>     8.9540     0.0000    80.0000 </r>
       <r>     9.0548     0.0000    80.0000 </r>
      </set>
     </set>
    </array>
   </total>
  </dos>
 </calculation>
 <structure name="finalpos" >
  <crystal>
   <varray name="basis" >
    <v>       4.14369834       4.14369834       8.28739668 </v>
    <v>       4.14369834      -4.14369834       0.00000000 </v>
    <v>       0.00000000       4.14369834      -4.14369834 </v>
   </varray>
   <i name="volume">    284.59311253 </i>
   <varray name="rec_basis" >
    <v>       0.06033258       0.06033258       0.06033258 </v>
    <v>       0.18099773      -0.06033258      -0.06033258 </v>
    <v>       0.12066515       0.12066515      -0.12066515 </v>
   </varray>
  </crystal>
  <varray name="positions" >
   <v>       0.00098523       0.00000000       0.00000000 </v>
   <v>       0.25000000       0.75000000       0.50000000 </v>
   <v>       0.50000000       0.50000000       0.00000000 </v>
   <v>       0.75000000       0.25000000       0.50000000 </v>
   <v>       0.37500000       0.12500000       0.25000000 </v>
   <v>       0.62500000       0.87500000       0.75000000 </v>
   <v>       0.87500000       0.62500000       0.25000000 </v>
   <v>       0.12500000       0.37500000       0.75000000 </v>
  </varray>
 </structure>
</modeling>
