8    
2    

1    
 -0.0063960214906683   0.0042640143271122   0.0063960214906683
   0.0912447300   -0.0630984200   -0.0912447300
  -0.0032787500    0.0036318600    0.0032787500
  -0.0000272800    0.0002211300    0.0000272800
  -0.0032311800    0.0035966200    0.0032311800
  -0.0427524600    0.0163245200    0.0427524600
  -0.0013527400    0.0012797200    0.0013527400
   0.0000331700   -0.0005774000   -0.0000331700
  -0.0406354900    0.0386219800    0.0406354900

1    
  0.0063960214906683  -0.0042640143271122  -0.0063960214906683
  -0.0931333900    0.0659414400    0.0931333900
   0.0032412000   -0.0035788300   -0.0032412000
   0.0000296600   -0.0002038900   -0.0000296600
   0.0032840400   -0.0036139700   -0.0032840400
   0.0429151400   -0.0173305900   -0.0429151400
   0.0013331500   -0.0012806000   -0.0013331500
  -0.0000256600    0.0005548700    0.0000256600
   0.0423558600   -0.0404884300   -0.0423558600
