<?xml version="1.0" encoding="ISO-8859-1"?>
<modeling>
 <generator>
  <i name="program" type="string">vasp </i>
  <i name="version" type="string">6.4.3  </i>
  <i name="subversion" type="string">19Mar24 (build Jun 20 2024 15:56:09) complex                          parallel </i>
  <i name="platform" type="string">LinuxNV_CrayMPICH </i>
  <i name="date" type="string">2025 01 13 </i>
  <i name="time" type="string">18:01:29 </i>
 </generator>
 <incar>
  <i type="string" name="PREC">Accurate</i>
  <i type="int" name="IBRION">    -1</i>
  <i name="EDIFF">      0.00000001</i>
  <i type="int" name="NSW">     0</i>
  <i name="ENCUT">    500.00000000</i>
  <i type="logical" name="LREAL"> F  </i>
  <i type="int" name="ISMEAR">     0</i>
  <i name="SIGMA">      0.01000000</i>
  <i type="logical" name="LWAVE"> F  </i>
  <i type="logical" name="LCHARG"> F  </i>
 </incar>
 <primitive_cell>
  <structure name="primitive_cell" >
   <crystal>
    <varray name="basis" >
     <v>      -2.72185119       2.72185119       5.44370237 </v>
     <v>       2.72185119      -5.44370237       2.72185119 </v>
     <v>       2.72185119       2.72185119       0.00000000 </v>
    </varray>
    <i name="volume">    161.31810740 </i>
    <varray name="rec_basis" >
     <v>      -0.04592463       0.04592463       0.13777388 </v>
     <v>       0.09184925      -0.09184925       0.09184925 </v>
     <v>       0.22962313       0.13777388       0.04592463 </v>
    </varray>
   </crystal>
   <varray name="positions" >
    <v>       0.99850011       0.00000000       1.00000000 </v>
    <v>       0.50000000       0.00000000       0.50000000 </v>
    <v>       0.25000000       0.50000000       0.75000000 </v>
    <v>       0.75000000       0.50000000       0.25000000 </v>
    <v>       0.18750000       0.12500000       0.56250000 </v>
    <v>       0.68750000       0.12500000       0.06250000 </v>
    <v>       0.43750000       0.62500000       0.31250000 </v>
    <v>       0.93750000       0.62500000       0.81250000 </v>
   </varray>
  </structure>
  <varray name="primitive_index" >
   <v type="int" >        1 </v>
   <v type="int" >        2 </v>
   <v type="int" >        3 </v>
   <v type="int" >        4 </v>
   <v type="int" >        5 </v>
   <v type="int" >        6 </v>
   <v type="int" >        7 </v>
   <v type="int" >        8 </v>
  </varray>
 </primitive_cell>
 <kpoints>
  <generation param="Gamma">
   <v type="int" name="divisions">       6        7       11 </v>
   <v name="usershift">      0.00000000       0.00000000       0.00000000 </v>
   <v name="genvec1">      0.16666667      -0.00000000      -0.00000000 </v>
   <v name="genvec2">     -0.00000000       0.14285714       0.00000000 </v>
   <v name="genvec3">      0.00000000      -0.00000000       0.09090909 </v>
   <v name="shift">      0.00000000       0.00000000       0.00000000 </v>
  </generation>
  <varray name="kpointlist" >
   <v>       0.00000000       0.00000000       0.00000000 </v>
   <v>       0.16666667       0.00000000       0.00000000 </v>
   <v>       0.33333333       0.00000000       0.00000000 </v>
   <v>       0.50000000       0.00000000       0.00000000 </v>
   <v>       0.00000000       0.14285714       0.00000000 </v>
   <v>       0.16666667       0.14285714       0.00000000 </v>
   <v>       0.33333333       0.14285714       0.00000000 </v>
   <v>       0.50000000       0.14285714       0.00000000 </v>
   <v>      -0.33333333       0.14285714       0.00000000 </v>
   <v>      -0.16666667       0.14285714       0.00000000 </v>
   <v>       0.00000000       0.28571429       0.00000000 </v>
   <v>       0.16666667       0.28571429       0.00000000 </v>
   <v>       0.33333333       0.28571429       0.00000000 </v>
   <v>       0.50000000       0.28571429       0.00000000 </v>
   <v>      -0.33333333       0.28571429       0.00000000 </v>
   <v>      -0.16666667       0.28571429       0.00000000 </v>
   <v>       0.00000000       0.42857143       0.00000000 </v>
   <v>       0.16666667       0.42857143       0.00000000 </v>
   <v>       0.33333333       0.42857143       0.00000000 </v>
   <v>       0.50000000       0.42857143       0.00000000 </v>
   <v>      -0.33333333       0.42857143       0.00000000 </v>
   <v>      -0.16666667       0.42857143       0.00000000 </v>
   <v>       0.00000000       0.00000000       0.09090909 </v>
   <v>       0.16666667       0.00000000       0.09090909 </v>
   <v>       0.33333333       0.00000000       0.09090909 </v>
   <v>       0.50000000       0.00000000       0.09090909 </v>
   <v>      -0.33333333       0.00000000       0.09090909 </v>
   <v>      -0.16666667       0.00000000       0.09090909 </v>
   <v>       0.00000000       0.14285714       0.09090909 </v>
   <v>       0.16666667       0.14285714       0.09090909 </v>
   <v>       0.33333333       0.14285714       0.09090909 </v>
   <v>       0.50000000       0.14285714       0.09090909 </v>
   <v>      -0.33333333       0.14285714       0.09090909 </v>
   <v>      -0.16666667       0.14285714       0.09090909 </v>
   <v>       0.00000000       0.28571429       0.09090909 </v>
   <v>       0.16666667       0.28571429       0.09090909 </v>
   <v>       0.33333333       0.28571429       0.09090909 </v>
   <v>       0.50000000       0.28571429       0.09090909 </v>
   <v>      -0.33333333       0.28571429       0.09090909 </v>
   <v>      -0.16666667       0.28571429       0.09090909 </v>
   <v>       0.00000000       0.42857143       0.09090909 </v>
   <v>       0.16666667       0.42857143       0.09090909 </v>
   <v>       0.33333333       0.42857143       0.09090909 </v>
   <v>       0.50000000       0.42857143       0.09090909 </v>
   <v>      -0.33333333       0.42857143       0.09090909 </v>
   <v>      -0.16666667       0.42857143       0.09090909 </v>
   <v>       0.00000000      -0.42857143       0.09090909 </v>
   <v>       0.16666667      -0.42857143       0.09090909 </v>
   <v>       0.33333333      -0.42857143       0.09090909 </v>
   <v>       0.50000000      -0.42857143       0.09090909 </v>
   <v>      -0.33333333      -0.42857143       0.09090909 </v>
   <v>      -0.16666667      -0.42857143       0.09090909 </v>
   <v>       0.00000000      -0.28571429       0.09090909 </v>
   <v>       0.16666667      -0.28571429       0.09090909 </v>
   <v>       0.33333333      -0.28571429       0.09090909 </v>
   <v>       0.50000000      -0.28571429       0.09090909 </v>
   <v>      -0.33333333      -0.28571429       0.09090909 </v>
   <v>      -0.16666667      -0.28571429       0.09090909 </v>
   <v>       0.00000000      -0.14285714       0.09090909 </v>
   <v>       0.16666667      -0.14285714       0.09090909 </v>
   <v>       0.33333333      -0.14285714       0.09090909 </v>
   <v>       0.50000000      -0.14285714       0.09090909 </v>
   <v>      -0.33333333      -0.14285714       0.09090909 </v>
   <v>      -0.16666667      -0.14285714       0.09090909 </v>
   <v>       0.00000000       0.00000000       0.18181818 </v>
   <v>       0.16666667       0.00000000       0.18181818 </v>
   <v>       0.33333333       0.00000000       0.18181818 </v>
   <v>       0.50000000       0.00000000       0.18181818 </v>
   <v>      -0.33333333       0.00000000       0.18181818 </v>
   <v>      -0.16666667       0.00000000       0.18181818 </v>
   <v>       0.00000000       0.14285714       0.18181818 </v>
   <v>       0.16666667       0.14285714       0.18181818 </v>
   <v>       0.33333333       0.14285714       0.18181818 </v>
   <v>       0.50000000       0.14285714       0.18181818 </v>
   <v>      -0.33333333       0.14285714       0.18181818 </v>
   <v>      -0.16666667       0.14285714       0.18181818 </v>
   <v>       0.00000000       0.28571429       0.18181818 </v>
   <v>       0.16666667       0.28571429       0.18181818 </v>
   <v>       0.33333333       0.28571429       0.18181818 </v>
   <v>       0.50000000       0.28571429       0.18181818 </v>
   <v>      -0.33333333       0.28571429       0.18181818 </v>
   <v>      -0.16666667       0.28571429       0.18181818 </v>
   <v>       0.00000000       0.42857143       0.18181818 </v>
   <v>       0.16666667       0.42857143       0.18181818 </v>
   <v>       0.33333333       0.42857143       0.18181818 </v>
   <v>       0.50000000       0.42857143       0.18181818 </v>
   <v>      -0.33333333       0.42857143       0.18181818 </v>
   <v>      -0.16666667       0.42857143       0.18181818 </v>
   <v>       0.00000000      -0.42857143       0.18181818 </v>
   <v>       0.16666667      -0.42857143       0.18181818 </v>
   <v>       0.33333333      -0.42857143       0.18181818 </v>
   <v>       0.50000000      -0.42857143       0.18181818 </v>
   <v>      -0.33333333      -0.42857143       0.18181818 </v>
   <v>      -0.16666667      -0.42857143       0.18181818 </v>
   <v>       0.00000000      -0.28571429       0.18181818 </v>
   <v>       0.16666667      -0.28571429       0.18181818 </v>
   <v>       0.33333333      -0.28571429       0.18181818 </v>
   <v>       0.50000000      -0.28571429       0.18181818 </v>
   <v>      -0.33333333      -0.28571429       0.18181818 </v>
   <v>      -0.16666667      -0.28571429       0.18181818 </v>
   <v>       0.00000000      -0.14285714       0.18181818 </v>
   <v>       0.16666667      -0.14285714       0.18181818 </v>
   <v>       0.33333333      -0.14285714       0.18181818 </v>
   <v>       0.50000000      -0.14285714       0.18181818 </v>
   <v>      -0.33333333      -0.14285714       0.18181818 </v>
   <v>      -0.16666667      -0.14285714       0.18181818 </v>
   <v>       0.00000000       0.00000000       0.27272727 </v>
   <v>       0.16666667       0.00000000       0.27272727 </v>
   <v>       0.33333333       0.00000000       0.27272727 </v>
   <v>       0.50000000       0.00000000       0.27272727 </v>
   <v>      -0.33333333       0.00000000       0.27272727 </v>
   <v>      -0.16666667       0.00000000       0.27272727 </v>
   <v>       0.00000000       0.14285714       0.27272727 </v>
   <v>       0.16666667       0.14285714       0.27272727 </v>
   <v>       0.33333333       0.14285714       0.27272727 </v>
   <v>       0.50000000       0.14285714       0.27272727 </v>
   <v>      -0.33333333       0.14285714       0.27272727 </v>
   <v>      -0.16666667       0.14285714       0.27272727 </v>
   <v>       0.00000000       0.28571429       0.27272727 </v>
   <v>       0.16666667       0.28571429       0.27272727 </v>
   <v>       0.33333333       0.28571429       0.27272727 </v>
   <v>       0.50000000       0.28571429       0.27272727 </v>
   <v>      -0.33333333       0.28571429       0.27272727 </v>
   <v>      -0.16666667       0.28571429       0.27272727 </v>
   <v>       0.00000000       0.42857143       0.27272727 </v>
   <v>       0.16666667       0.42857143       0.27272727 </v>
   <v>       0.33333333       0.42857143       0.27272727 </v>
   <v>       0.50000000       0.42857143       0.27272727 </v>
   <v>      -0.33333333       0.42857143       0.27272727 </v>
   <v>      -0.16666667       0.42857143       0.27272727 </v>
   <v>       0.00000000      -0.42857143       0.27272727 </v>
   <v>       0.16666667      -0.42857143       0.27272727 </v>
   <v>       0.33333333      -0.42857143       0.27272727 </v>
   <v>       0.50000000      -0.42857143       0.27272727 </v>
   <v>      -0.33333333      -0.42857143       0.27272727 </v>
   <v>      -0.16666667      -0.42857143       0.27272727 </v>
   <v>       0.00000000      -0.28571429       0.27272727 </v>
   <v>       0.16666667      -0.28571429       0.27272727 </v>
   <v>       0.33333333      -0.28571429       0.27272727 </v>
   <v>       0.50000000      -0.28571429       0.27272727 </v>
   <v>      -0.33333333      -0.28571429       0.27272727 </v>
   <v>      -0.16666667      -0.28571429       0.27272727 </v>
   <v>       0.00000000      -0.14285714       0.27272727 </v>
   <v>       0.16666667      -0.14285714       0.27272727 </v>
   <v>       0.33333333      -0.14285714       0.27272727 </v>
   <v>       0.50000000      -0.14285714       0.27272727 </v>
   <v>      -0.33333333      -0.14285714       0.27272727 </v>
   <v>      -0.16666667      -0.14285714       0.27272727 </v>
   <v>       0.00000000       0.00000000       0.36363636 </v>
   <v>       0.16666667       0.00000000       0.36363636 </v>
   <v>       0.33333333       0.00000000       0.36363636 </v>
   <v>       0.50000000       0.00000000       0.36363636 </v>
   <v>      -0.33333333       0.00000000       0.36363636 </v>
   <v>      -0.16666667       0.00000000       0.36363636 </v>
   <v>       0.00000000       0.14285714       0.36363636 </v>
   <v>       0.16666667       0.14285714       0.36363636 </v>
   <v>       0.33333333       0.14285714       0.36363636 </v>
   <v>       0.50000000       0.14285714       0.36363636 </v>
   <v>      -0.33333333       0.14285714       0.36363636 </v>
   <v>      -0.16666667       0.14285714       0.36363636 </v>
   <v>       0.00000000       0.28571429       0.36363636 </v>
   <v>       0.16666667       0.28571429       0.36363636 </v>
   <v>       0.33333333       0.28571429       0.36363636 </v>
   <v>       0.50000000       0.28571429       0.36363636 </v>
   <v>      -0.33333333       0.28571429       0.36363636 </v>
   <v>      -0.16666667       0.28571429       0.36363636 </v>
   <v>       0.00000000       0.42857143       0.36363636 </v>
   <v>       0.16666667       0.42857143       0.36363636 </v>
   <v>       0.33333333       0.42857143       0.36363636 </v>
   <v>       0.50000000       0.42857143       0.36363636 </v>
   <v>      -0.33333333       0.42857143       0.36363636 </v>
   <v>      -0.16666667       0.42857143       0.36363636 </v>
   <v>       0.00000000      -0.42857143       0.36363636 </v>
   <v>       0.16666667      -0.42857143       0.36363636 </v>
   <v>       0.33333333      -0.42857143       0.36363636 </v>
   <v>       0.50000000      -0.42857143       0.36363636 </v>
   <v>      -0.33333333      -0.42857143       0.36363636 </v>
   <v>      -0.16666667      -0.42857143       0.36363636 </v>
   <v>       0.00000000      -0.28571429       0.36363636 </v>
   <v>       0.16666667      -0.28571429       0.36363636 </v>
   <v>       0.33333333      -0.28571429       0.36363636 </v>
   <v>       0.50000000      -0.28571429       0.36363636 </v>
   <v>      -0.33333333      -0.28571429       0.36363636 </v>
   <v>      -0.16666667      -0.28571429       0.36363636 </v>
   <v>       0.00000000      -0.14285714       0.36363636 </v>
   <v>       0.16666667      -0.14285714       0.36363636 </v>
   <v>       0.33333333      -0.14285714       0.36363636 </v>
   <v>       0.50000000      -0.14285714       0.36363636 </v>
   <v>      -0.33333333      -0.14285714       0.36363636 </v>
   <v>      -0.16666667      -0.14285714       0.36363636 </v>
   <v>       0.00000000       0.00000000       0.45454545 </v>
   <v>       0.16666667       0.00000000       0.45454545 </v>
   <v>       0.33333333       0.00000000       0.45454545 </v>
   <v>       0.50000000       0.00000000       0.45454545 </v>
   <v>      -0.33333333       0.00000000       0.45454545 </v>
   <v>      -0.16666667       0.00000000       0.45454545 </v>
   <v>       0.00000000       0.14285714       0.45454545 </v>
   <v>       0.16666667       0.14285714       0.45454545 </v>
   <v>       0.33333333       0.14285714       0.45454545 </v>
   <v>       0.50000000       0.14285714       0.45454545 </v>
   <v>      -0.33333333       0.14285714       0.45454545 </v>
   <v>      -0.16666667       0.14285714       0.45454545 </v>
   <v>       0.00000000       0.28571429       0.45454545 </v>
   <v>       0.16666667       0.28571429       0.45454545 </v>
   <v>       0.33333333       0.28571429       0.45454545 </v>
   <v>       0.50000000       0.28571429       0.45454545 </v>
   <v>      -0.33333333       0.28571429       0.45454545 </v>
   <v>      -0.16666667       0.28571429       0.45454545 </v>
   <v>       0.00000000       0.42857143       0.45454545 </v>
   <v>       0.16666667       0.42857143       0.45454545 </v>
   <v>       0.33333333       0.42857143       0.45454545 </v>
   <v>       0.50000000       0.42857143       0.45454545 </v>
   <v>      -0.33333333       0.42857143       0.45454545 </v>
   <v>      -0.16666667       0.42857143       0.45454545 </v>
   <v>       0.00000000      -0.42857143       0.45454545 </v>
   <v>       0.16666667      -0.42857143       0.45454545 </v>
   <v>       0.33333333      -0.42857143       0.45454545 </v>
   <v>       0.50000000      -0.42857143       0.45454545 </v>
   <v>      -0.33333333      -0.42857143       0.45454545 </v>
   <v>      -0.16666667      -0.42857143       0.45454545 </v>
   <v>       0.00000000      -0.28571429       0.45454545 </v>
   <v>       0.16666667      -0.28571429       0.45454545 </v>
   <v>       0.33333333      -0.28571429       0.45454545 </v>
   <v>       0.50000000      -0.28571429       0.45454545 </v>
   <v>      -0.33333333      -0.28571429       0.45454545 </v>
   <v>      -0.16666667      -0.28571429       0.45454545 </v>
   <v>       0.00000000      -0.14285714       0.45454545 </v>
   <v>       0.16666667      -0.14285714       0.45454545 </v>
   <v>       0.33333333      -0.14285714       0.45454545 </v>
   <v>       0.50000000      -0.14285714       0.45454545 </v>
   <v>      -0.33333333      -0.14285714       0.45454545 </v>
   <v>      -0.16666667      -0.14285714       0.45454545 </v>
  </varray>
  <varray name="weights" >
   <v>       0.00216450 </v>
   <v>       0.00432900 </v>
   <v>       0.00432900 </v>
   <v>       0.00216450 </v>
   <v>       0.00432900 </v>
   <v>       0.00432900 </v>
   <v>       0.00432900 </v>
   <v>       0.00432900 </v>
   <v>       0.00432900 </v>
   <v>       0.00432900 </v>
   <v>       0.00432900 </v>
   <v>       0.00432900 </v>
   <v>       0.00432900 </v>
   <v>       0.00432900 </v>
   <v>       0.00432900 </v>
   <v>       0.00432900 </v>
   <v>       0.00432900 </v>
   <v>       0.00432900 </v>
   <v>       0.00432900 </v>
   <v>       0.00432900 </v>
   <v>       0.00432900 </v>
   <v>       0.00432900 </v>
   <v>       0.00432900 </v>
   <v>       0.00432900 </v>
   <v>       0.00432900 </v>
   <v>       0.00432900 </v>
   <v>       0.00432900 </v>
   <v>       0.00432900 </v>
   <v>       0.00432900 </v>
   <v>       0.00432900 </v>
   <v>       0.00432900 </v>
   <v>       0.00432900 </v>
   <v>       0.00432900 </v>
   <v>       0.00432900 </v>
   <v>       0.00432900 </v>
   <v>       0.00432900 </v>
   <v>       0.00432900 </v>
   <v>       0.00432900 </v>
   <v>       0.00432900 </v>
   <v>       0.00432900 </v>
   <v>       0.00432900 </v>
   <v>       0.00432900 </v>
   <v>       0.00432900 </v>
   <v>       0.00432900 </v>
   <v>       0.00432900 </v>
   <v>       0.00432900 </v>
   <v>       0.00432900 </v>
   <v>       0.00432900 </v>
   <v>       0.00432900 </v>
   <v>       0.00432900 </v>
   <v>       0.00432900 </v>
   <v>       0.00432900 </v>
   <v>       0.00432900 </v>
   <v>       0.00432900 </v>
   <v>       0.00432900 </v>
   <v>       0.00432900 </v>
   <v>       0.00432900 </v>
   <v>       0.00432900 </v>
   <v>       0.00432900 </v>
   <v>       0.00432900 </v>
   <v>       0.00432900 </v>
   <v>       0.00432900 </v>
   <v>       0.00432900 </v>
   <v>       0.00432900 </v>
   <v>       0.00432900 </v>
   <v>       0.00432900 </v>
   <v>       0.00432900 </v>
   <v>       0.00432900 </v>
   <v>       0.00432900 </v>
   <v>       0.00432900 </v>
   <v>       0.00432900 </v>
   <v>       0.00432900 </v>
   <v>       0.00432900 </v>
   <v>       0.00432900 </v>
   <v>       0.00432900 </v>
   <v>       0.00432900 </v>
   <v>       0.00432900 </v>
   <v>       0.00432900 </v>
   <v>       0.00432900 </v>
   <v>       0.00432900 </v>
   <v>       0.00432900 </v>
   <v>       0.00432900 </v>
   <v>       0.00432900 </v>
   <v>       0.00432900 </v>
   <v>       0.00432900 </v>
   <v>       0.00432900 </v>
   <v>       0.00432900 </v>
   <v>       0.00432900 </v>
   <v>       0.00432900 </v>
   <v>       0.00432900 </v>
   <v>       0.00432900 </v>
   <v>       0.00432900 </v>
   <v>       0.00432900 </v>
   <v>       0.00432900 </v>
   <v>       0.00432900 </v>
   <v>       0.00432900 </v>
   <v>       0.00432900 </v>
   <v>       0.00432900 </v>
   <v>       0.00432900 </v>
   <v>       0.00432900 </v>
   <v>       0.00432900 </v>
   <v>       0.00432900 </v>
   <v>       0.00432900 </v>
   <v>       0.00432900 </v>
   <v>       0.00432900 </v>
   <v>       0.00432900 </v>
   <v>       0.00432900 </v>
   <v>       0.00432900 </v>
   <v>       0.00432900 </v>
   <v>       0.00432900 </v>
   <v>       0.00432900 </v>
   <v>       0.00432900 </v>
   <v>       0.00432900 </v>
   <v>       0.00432900 </v>
   <v>       0.00432900 </v>
   <v>       0.00432900 </v>
   <v>       0.00432900 </v>
   <v>       0.00432900 </v>
   <v>       0.00432900 </v>
   <v>       0.00432900 </v>
   <v>       0.00432900 </v>
   <v>       0.00432900 </v>
   <v>       0.00432900 </v>
   <v>       0.00432900 </v>
   <v>       0.00432900 </v>
   <v>       0.00432900 </v>
   <v>       0.00432900 </v>
   <v>       0.00432900 </v>
   <v>       0.00432900 </v>
   <v>       0.00432900 </v>
   <v>       0.00432900 </v>
   <v>       0.00432900 </v>
   <v>       0.00432900 </v>
   <v>       0.00432900 </v>
   <v>       0.00432900 </v>
   <v>       0.00432900 </v>
   <v>       0.00432900 </v>
   <v>       0.00432900 </v>
   <v>       0.00432900 </v>
   <v>       0.00432900 </v>
   <v>       0.00432900 </v>
   <v>       0.00432900 </v>
   <v>       0.00432900 </v>
   <v>       0.00432900 </v>
   <v>       0.00432900 </v>
   <v>       0.00432900 </v>
   <v>       0.00432900 </v>
   <v>       0.00432900 </v>
   <v>       0.00432900 </v>
   <v>       0.00432900 </v>
   <v>       0.00432900 </v>
   <v>       0.00432900 </v>
   <v>       0.00432900 </v>
   <v>       0.00432900 </v>
   <v>       0.00432900 </v>
   <v>       0.00432900 </v>
   <v>       0.00432900 </v>
   <v>       0.00432900 </v>
   <v>       0.00432900 </v>
   <v>       0.00432900 </v>
   <v>       0.00432900 </v>
   <v>       0.00432900 </v>
   <v>       0.00432900 </v>
   <v>       0.00432900 </v>
   <v>       0.00432900 </v>
   <v>       0.00432900 </v>
   <v>       0.00432900 </v>
   <v>       0.00432900 </v>
   <v>       0.00432900 </v>
   <v>       0.00432900 </v>
   <v>       0.00432900 </v>
   <v>       0.00432900 </v>
   <v>       0.00432900 </v>
   <v>       0.00432900 </v>
   <v>       0.00432900 </v>
   <v>       0.00432900 </v>
   <v>       0.00432900 </v>
   <v>       0.00432900 </v>
   <v>       0.00432900 </v>
   <v>       0.00432900 </v>
   <v>       0.00432900 </v>
   <v>       0.00432900 </v>
   <v>       0.00432900 </v>
   <v>       0.00432900 </v>
   <v>       0.00432900 </v>
   <v>       0.00432900 </v>
   <v>       0.00432900 </v>
   <v>       0.00432900 </v>
   <v>       0.00432900 </v>
   <v>       0.00432900 </v>
   <v>       0.00432900 </v>
   <v>       0.00432900 </v>
   <v>       0.00432900 </v>
   <v>       0.00432900 </v>
   <v>       0.00432900 </v>
   <v>       0.00432900 </v>
   <v>       0.00432900 </v>
   <v>       0.00432900 </v>
   <v>       0.00432900 </v>
   <v>       0.00432900 </v>
   <v>       0.00432900 </v>
   <v>       0.00432900 </v>
   <v>       0.00432900 </v>
   <v>       0.00432900 </v>
   <v>       0.00432900 </v>
   <v>       0.00432900 </v>
   <v>       0.00432900 </v>
   <v>       0.00432900 </v>
   <v>       0.00432900 </v>
   <v>       0.00432900 </v>
   <v>       0.00432900 </v>
   <v>       0.00432900 </v>
   <v>       0.00432900 </v>
   <v>       0.00432900 </v>
   <v>       0.00432900 </v>
   <v>       0.00432900 </v>
   <v>       0.00432900 </v>
   <v>       0.00432900 </v>
   <v>       0.00432900 </v>
   <v>       0.00432900 </v>
   <v>       0.00432900 </v>
   <v>       0.00432900 </v>
   <v>       0.00432900 </v>
   <v>       0.00432900 </v>
   <v>       0.00432900 </v>
   <v>       0.00432900 </v>
   <v>       0.00432900 </v>
   <v>       0.00432900 </v>
   <v>       0.00432900 </v>
   <v>       0.00432900 </v>
   <v>       0.00432900 </v>
   <v>       0.00432900 </v>
  </varray>
 </kpoints>
 <parameters>
  <separator name="general" >
   <i type="string" name="SYSTEM">unknown system</i>
   <i type="logical" name="LCOMPAT"> F  </i>
  </separator>
  <separator name="electronic" >
   <i type="string" name="PREC">accura</i>
   <i name="ENMAX">    500.00000000</i>
   <i name="ENAUG">    322.06900000</i>
   <i name="EDIFF">      0.00000001</i>
   <i type="int" name="IALGO">    38</i>
   <i type="int" name="IWAVPR">    10</i>
   <i type="int" name="NBANDS">    24</i>
   <i type="int" name="NBANDSLOW">    -1</i>
   <i type="int" name="NBANDSHIGH">    -1</i>
   <i name="NELECT">     32.00000000</i>
   <i type="int" name="TURBO">     0</i>
   <i type="int" name="IRESTART">     0</i>
   <i type="int" name="NREBOOT">     0</i>
   <i type="int" name="NMIN">     0</i>
   <i name="EREF">      0.00000000</i>
   <separator name="electronic smearing" >
    <i type="int" name="ISMEAR">     0</i>
    <i name="SIGMA">      0.01000000</i>
    <i name="KSPACING">      0.50000000</i>
    <i type="logical" name="KGAMMA"> T  </i>
    <i type="logical" name="KBLOWUP"> F  </i>
   </separator>
   <separator name="electronic projectors" >
    <i type="logical" name="LREAL"> F  </i>
    <v name="ROPT">      0.00000000</v>
    <i type="int" name="LMAXPAW">  -100</i>
    <i type="int" name="LMAXMIX">     2</i>
    <i type="logical" name="NLSPLINE"> F  </i>
   </separator>
   <separator name="electronic startup" >
    <i type="int" name="ISTART">     0</i>
    <i type="int" name="ICHARG">     2</i>
    <i type="int" name="INIWAV">     1</i>
   </separator>
   <separator name="electronic spin" >
    <i type="int" name="ISPIN">     1</i>
    <i type="logical" name="LNONCOLLINEAR"> F  </i>
    <v name="MAGMOM">      1.00000000      1.00000000      1.00000000      1.00000000      1.00000000      1.00000000      1.00000000      1.00000000</v>
    <i name="NUPDOWN">     -1.00000000</i>
    <i type="logical" name="LSORBIT"> F  </i>
    <v name="SAXIS">      0.00000000      0.00000000      1.00000000</v>
    <i type="logical" name="LSPIRAL"> F  </i>
    <v name="QSPIRAL">      0.00000000      0.00000000      0.00000000</v>
    <i type="logical" name="LZEROZ"> F  </i>
   </separator>
   <separator name="electronic exchange-correlation" >
    <i type="logical" name="LASPH"> F  </i>
   </separator>
   <separator name="electronic convergence" >
    <i type="int" name="NELM">    60</i>
    <i type="int" name="NELMDL">    -5</i>
    <i type="int" name="NELMIN">     2</i>
    <i name="ENINI">    500.00000000</i>
    <separator name="electronic convergence detail" >
     <i type="logical" name="LDIAG"> T  </i>
     <i type="logical" name="LSUBROT"> F  </i>
     <i name="WEIMIN">      0.00000000</i>
     <i name="EBREAK">      0.00000000</i>
     <i name="DEPER">      0.30000000</i>
     <i type="int" name="NRMM">     4</i>
     <i name="TIME">      0.40000000</i>
    </separator>
   </separator>
   <separator name="electronic mixer" >
    <i name="AMIX">      0.40000000</i>
    <i name="BMIX">      1.00000000</i>
    <i name="AMIN">      0.10000000</i>
    <i name="AMIX_MAG">      1.60000000</i>
    <i name="BMIX_MAG">      1.00000000</i>
    <separator name="electronic mixer details" >
     <i type="int" name="IMIX">     4</i>
     <i type="logical" name="MIXFIRST"> F  </i>
     <i type="int" name="MAXMIX">   -45</i>
     <i name="WC">    100.00000000</i>
     <i type="int" name="INIMIX">     1</i>
     <i type="int" name="MIXPRE">     1</i>
     <i type="int" name="MREMOVE">     5</i>
    </separator>
   </separator>
   <separator name="electronic dipolcorrection" >
    <i type="logical" name="LDIPOL"> F  </i>
    <i type="logical" name="LMONO"> F  </i>
    <i type="int" name="IDIPOL">     0</i>
    <i name="EPSILON">      1.00000000</i>
    <v name="DIPOL">   -100.00000000   -100.00000000   -100.00000000</v>
    <i name="EFIELD">      0.00000000</i>
    <i type="logical" name="LVACPOTAV"> F  </i>
   </separator>
  </separator>
  <separator name="grids" >
   <i type="int" name="NGX">    50</i>
   <i type="int" name="NGY">    50</i>
   <i type="int" name="NGZ">    28</i>
   <i type="int" name="NGXF">   100</i>
   <i type="int" name="NGYF">   100</i>
   <i type="int" name="NGZF">    56</i>
   <i type="logical" name="ADDGRID"> F  </i>
  </separator>
  <separator name="ionic" >
   <i type="int" name="NSW">     0</i>
   <i type="int" name="IBRION">    -1</i>
   <i type="int" name="MDALGO">     0</i>
   <i type="int" name="ISIF">     2</i>
   <i name="PSTRESS">      0.00000000</i>
   <i name="EDIFFG">      0.00000010</i>
   <i type="int" name="NFREE">     0</i>
   <i name="POTIM">      0.50000000</i>
   <i name="SMASS">     -3.00000000</i>
   <i name="SCALEE">      1.00000000</i>
  </separator>
  <separator name="ionic md" >
   <i name="TEBEG">      0.00010000</i>
   <i name="TEEND">      0.00010000</i>
   <i type="int" name="NBLOCK">     1</i>
   <i type="int" name="KBLOCK">     1</i>
   <i type="int" name="NPACO">   256</i>
   <i name="APACO">     10.00000000</i>
  </separator>
  <separator name="symmetry" >
   <i type="int" name="ISYM">     2</i>
   <i name="SYMPREC">      0.00001000</i>
  </separator>
  <separator name="dos" >
   <i type="int" name="LORBIT">     0</i>
   <v name="RWIGS">     -1.00000000</v>
   <i type="int" name="NEDOS">   301</i>
   <i name="EMIN">     10.00000000</i>
   <i name="EMAX">    -10.00000000</i>
   <i name="EFERMI">      0.00000000</i>
  </separator>
  <separator name="writing" >
   <i type="int" name="NWRITE">     2</i>
   <i type="logical" name="LWAVE"> F  </i>
   <i type="logical" name="LDOWNSAMPLE"> F  </i>
   <i type="logical" name="LCHARG"> F  </i>
   <i type="logical" name="LPARD"> F  </i>
   <i type="logical" name="LVTOT"> F  </i>
   <i type="logical" name="LVHAR"> F  </i>
   <i type="logical" name="LELF"> F  </i>
   <i type="logical" name="LOPTICS"> F  </i>
   <v name="STM">      0.00000000      0.00000000      0.00000000      0.00000000      0.00000000      0.00000000      0.00000000</v>
  </separator>
  <separator name="performance" >
   <i type="int" name="NPAR">     8</i>
   <i type="int" name="NSIM">     4</i>
   <i type="int" name="NBLK">    -1</i>
   <i type="logical" name="LPLANE"> T  </i>
   <i type="logical" name="LSCALAPACK"> T  </i>
   <i type="logical" name="LSCAAWARE"> F  </i>
   <i type="logical" name="LSCALU"> F  </i>
   <i type="logical" name="LASYNC"> F  </i>
   <i type="logical" name="LORBITALREAL"> F  </i>
  </separator>
  <separator name="miscellaneous" >
   <i type="int" name="IDIOT">     3</i>
   <i type="int" name="PHON_NSTRUCT">    -1</i>
   <i type="logical" name="LMUSIC"> F  </i>
   <v name="POMASS">     28.08500000</v>
   <v name="DARWINR">      0.00000000</v>
   <v name="DARWINV">      1.00000000</v>
   <i type="logical" name="LCORR"> T  </i>
  </separator>
  <i type="logical" name="GGA_COMPAT"> T  </i>
  <i type="logical" name="LBERRY"> F  </i>
  <i type="int" name="ICORELEVEL">     0</i>
  <i type="logical" name="LDAU"> F  </i>
  <i type="int" name="I_CONSTRAINED_M">     0</i>
  <separator name="electronic exchange-correlation" >
   <i type="string" name="GGA    ">PE</i>
   <i type="string" name="XC_C">1</i>
   <i type="int" name="VOSKOWN">     0</i>
   <i type="logical" name="LHFCALC"> F  </i>
   <i type="string" name="PRECFOCK"></i>
   <i type="logical" name="LSYMGRAD"> F  </i>
   <i type="logical" name="LHFONE"> F  </i>
   <i type="logical" name="LRHFCALC"> F  </i>
   <i type="logical" name="LTHOMAS"> F  </i>
   <i type="logical" name="LMODELHF"> F  </i>
   <i type="logical" name="LFOCKACE"> F  </i>
   <i name="ENCUT4O">     -1.00000000</i>
   <i type="int" name="EXXOEP">     0</i>
   <i type="int" name="FOURORBIT">     0</i>
   <i name="AEXX">      0.00000000</i>
   <i name="HFALPHA">      0.00000000</i>
   <i name="MCALPHA">      0.00000000</i>
   <i name="ALDAX">      1.00000000</i>
   <i name="AGGAX">      1.00000000</i>
   <i name="AMGGAX">      1.00000000</i>
   <i name="ALDAC">      1.00000000</i>
   <i name="AGGAC">      1.00000000</i>
   <i name="AMGGAC">      1.00000000</i>
   <i type="int" name="NKREDX">     1</i>
   <i type="int" name="NKREDY">     1</i>
   <i type="int" name="NKREDZ">     1</i>
   <i type="logical" name="SHIFTRED"> F  </i>
   <i type="logical" name="ODDONLY"> F  </i>
   <i type="logical" name="EVENONLY"> F  </i>
   <i type="int" name="LMAXFOCK">     0</i>
   <i type="int" name="NMAXFOCKAE">     0</i>
   <i type="logical" name="LFOCKAEDFT"> F  </i>
   <i name="HFSCREEN">      0.00000000</i>
   <i name="HFSCREENC">      0.00000000</i>
   <i type="int" name="NBANDSGWLOW">     0</i>
  </separator>
  <separator name="vdW DFT" >
   <i type="logical" name="LUSE_VDW"> F  </i>
   <i type="int" name="IVDW_NL">    -1</i>
   <i type="logical" name="LSPIN_VDW"> F  </i>
   <i name="ZAB_VDW">     -0.84910000</i>
   <i name="GAMMA_VDW">      1.39626340</i>
   <i name="ALPHA_VDW">      0.00000000</i>
   <i name="PARAM1">      0.12340000</i>
   <i name="PARAM2">      1.00000000</i>
   <i name="BPARAM">      6.30000000</i>
   <i name="CPARAM">      0.00930000</i>
  </separator>
  <separator name="model GW" >
   <i type="int" name="MODEL_GW">     0</i>
   <i name="MODEL_EPS0">     12.09885805</i>
   <i name="MODEL_ALPHA">      1.00000000</i>
  </separator>
  <separator name="linear response parameters" >
   <i type="logical" name="LEPSILON"> F  </i>
   <i type="logical" name="LRPA"> F  </i>
   <i type="logical" name="LNABLA"> F  </i>
   <i type="logical" name="LVEL"> F  </i>
   <i name="CSHIFT">      0.10000000</i>
   <i name="OMEGAMAX">     -1.00000000</i>
   <i name="DEG_THRESHOLD">      0.00200000</i>
   <i name="RTIME">     -0.10000000</i>
   <i name="WPLASMAI">      0.00000000</i>
   <v name="DFIELD">      0.00000000      0.00000000      0.00000000</v>
   <v name="WPLASMA">      0.00000000      0.00000000      0.00000000      0.00000000      0.00000000      0.00000000      0.00000000      0.00000000      0.00000000</v>
  </separator>
  <separator name="orbital magnetization" >
   <i type="logical" name="NUCIND"> F  </i>
   <v name="MAGPOS">      0.00000000      0.00000000      0.00000000</v>
   <i type="logical" name="LNICSALL"> T  </i>
   <i type="logical" name="ORBITALMAG"> F  </i>
   <i type="logical" name="LMAGBLOCH"> F  </i>
   <i type="logical" name="LCHIMAG"> F  </i>
   <i type="logical" name="LGAUGE"> T  </i>
   <i type="int" name="MAGATOM">     0</i>
   <v name="MAGDIPOL">      0.00000000      0.00000000      0.00000000</v>
   <v name="AVECCONST">      0.00000000      0.00000000      0.00000000</v>
  </separator>
  <separator name="response functions" >
   <i type="logical" name="LALL_IN_ONE"> F  </i>
   <i type="int" name="IALL_IN_ONE">    -1</i>
   <i type="int" name="NBANDS_WAVE">    -1</i>
   <i type="logical" name="LFINITE_TEMPERATURE"> F  </i>
   <i type="logical" name="LADDER"> F  </i>
   <i type="logical" name="LRPAFORCE"> F  </i>
   <i type="logical" name="LFXC"> F  </i>
   <i type="logical" name="LHARTREE"> T  </i>
   <i type="int" name="IBSE">     0</i>
   <v type="int" name="KPOINT">    -1     0     0     0</v>
   <i type="logical" name="LTCTC"> F  </i>
   <i type="logical" name="LTCTE"> F  </i>
   <i type="logical" name="LTETE"> F  </i>
   <i type="logical" name="LTRIPLET"> F  </i>
   <i type="logical" name="LFXCEPS"> F  </i>
   <i type="logical" name="LFXHEG"> F  </i>
   <i type="int" name="NATURALO">     2</i>
   <i type="logical" name="LHOLEGF"> F  </i>
   <i type="logical" name="L2ORDER"> F  </i>
   <i type="logical" name="LDMP1"> F  </i>
   <i type="logical" name="LMP2LT"> F  </i>
   <i type="logical" name="LSMP2LT"> F  </i>
   <i type="logical" name="LGWLF"> F  </i>
   <i name="ENCUTGW">     -1.60000002</i>
   <i name="ENCUTGWSOFT">     -1.60000002</i>
   <i name="ENCUTLF">     -1.00000000</i>
   <i type="logical" name="ESF_SPLINES"> F  </i>
   <i name="ESF_CONV">      0.01000000</i>
   <i type="int" name="ESF_NINTER">    15</i>
   <i type="int" name="LMAXMP2">    -1</i>
   <i name="SCISSOR">      0.00000000</i>
   <i type="int" name="NOMEGA">     0</i>
   <i type="int" name="NOMEGAR">     0</i>
   <i type="int" name="NBANDSGW">    -1</i>
   <i type="int" name="NBANDSO">    -1</i>
   <i type="int" name="NBANDSV">    -1</i>
   <i type="int" name="NELMGW">     1</i>
   <i type="int" name="NELMHF">     1</i>
   <i type="int" name="DIM">     3</i>
   <i type="int" name="IESPILON">     4</i>
   <i type="int" name="ANTIRES">     0</i>
   <i name="OMEGAMAX">    -30.00000000</i>
   <i name="OMEGAMIN">    -30.00000000</i>
   <i name="OMEGATL">   -200.00000000</i>
   <i type="int" name="OMEGAGRID">     0</i>
   <i name="CSHIFT">     -0.10000000</i>
   <i type="logical" name="LSELFENERGY"> F  </i>
   <i type="logical" name="LSPECTRAL"> F  </i>
   <i type="logical" name="LSPECTRALGW"> F  </i>
   <i type="logical" name="LSINGLES"> F  </i>
   <i type="logical" name="LFERMIGW"> F  </i>
   <i type="logical" name="ODDONLYGW"> F  </i>
   <i type="logical" name="EVENONLYGW"> F  </i>
   <i type="int" name="NKREDLFX">     1</i>
   <i type="int" name="NKREDLFY">     1</i>
   <i type="int" name="NKREDLFZ">     1</i>
   <i type="int" name="MAXMEM">  2800</i>
   <i type="int" name="TELESCOPE">     0</i>
   <i type="int" name="NTAUPAR">    -1</i>
   <i type="int" name="NOMEGAPAR">    -1</i>
   <i name="DAMP_NEWTON">      0.80000001</i>
   <i name="LAMBDA">      1.00000000</i>
  </separator>
  <separator name="External order field" >
   <i name="OFIELD_KAPPA">      0.00000000</i>
   <v name="OFIELD_K">      0.00000000      0.00000000      0.00000000</v>
   <i name="OFIELD_Q6_NEAR">      0.00000000</i>
   <i name="OFIELD_Q6_FAR">      0.00000000</i>
   <i name="OFIELD_A">      0.00000000</i>
  </separator>
  <separator name="optional k-points parameters" >
   <i type="int" name="KPOINTS_OPT_MODE">     1</i>
   <i type="logical" name="LKPOINTS_OPT"> F  </i>
  </separator>
 </parameters>
 <atominfo>
  <atoms>       8 </atoms>
  <types>       1 </types>
  <array name="atoms" >
   <dimension dim="1">ion</dimension>
   <field type="string">element</field>
   <field type="int">atomtype</field>
   <set>
    <rc><c>Si</c><c>   1</c></rc>
    <rc><c>Si</c><c>   1</c></rc>
    <rc><c>Si</c><c>   1</c></rc>
    <rc><c>Si</c><c>   1</c></rc>
    <rc><c>Si</c><c>   1</c></rc>
    <rc><c>Si</c><c>   1</c></rc>
    <rc><c>Si</c><c>   1</c></rc>
    <rc><c>Si</c><c>   1</c></rc>
   </set>
  </array>
  <array name="atomtypes" >
   <dimension dim="1">type</dimension>
   <field type="int">atomspertype</field>
   <field type="string">element</field>
   <field>mass</field>
   <field>valence</field>
   <field type="string">pseudopotential</field>
   <set>
    <rc><c>   8</c><c>Si</c><c>     28.08500000</c><c>      4.00000000</c><c>  PAW_PBE Si 05Jan2001                  </c></rc>
   </set>
  </array>
 </atominfo>
 <structure name="initialpos" >
  <crystal>
   <varray name="basis" >
    <v>      -2.72185119       2.72185119       5.44370237 </v>
    <v>       2.72185119      -5.44370237       2.72185119 </v>
    <v>       2.72185119       2.72185119       0.00000000 </v>
   </varray>
   <i name="volume">    161.31810740 </i>
   <varray name="rec_basis" >
    <v>      -0.04592463       0.04592463       0.13777388 </v>
    <v>       0.09184925      -0.09184925       0.09184925 </v>
    <v>       0.22962313       0.13777388       0.04592463 </v>
   </varray>
  </crystal>
  <varray name="positions" >
   <v>       0.99850011       0.00000000       0.00000000 </v>
   <v>       0.50000000       0.00000000       0.50000000 </v>
   <v>       0.25000000       0.50000000       0.75000000 </v>
   <v>       0.75000000       0.50000000       0.25000000 </v>
   <v>       0.18750000       0.12500000       0.56250000 </v>
   <v>       0.68750000       0.12500000       0.06250000 </v>
   <v>       0.43750000       0.62500000       0.31250000 </v>
   <v>       0.93750000       0.62500000       0.81250000 </v>
  </varray>
 </structure>
 <calculation>
  <scstep>
   <time name="dav">    1.20    1.20</time>
   <time name="total">    1.22    1.22</time>
   <energy>
    <i name="alphaZ">     13.35522965 </i>
    <i name="ewald">   -911.95039833 </i>
    <i name="hartreedc">    -44.46073639 </i>
    <i name="XCdc">    -74.52612210 </i>
    <i name="pawpsdc">    704.99039692 </i>
    <i name="pawaedc">   -564.24414232 </i>
    <i name="eentropy">     -0.00009862 </i>
    <i name="bandstr">    119.31735695 </i>
    <i name="atom">    824.53005375 </i>
    <i name="e_fr_energy">     67.01153952 </i>
    <i name="e_wo_entrp">     67.01163814 </i>
    <i name="e_0_energy">     67.01158883 </i>
   </energy>
  </scstep>
  <scstep>
   <time name="dav">    1.42    1.43</time>
   <time name="total">    1.42    1.43</time>
   <energy>
    <i name="e_fr_energy">    -38.88074208 </i>
    <i name="e_wo_entrp">    -38.88074208 </i>
    <i name="e_0_energy">    -38.88074208 </i>
   </energy>
  </scstep>
  <scstep>
   <time name="dav">    1.43    1.44</time>
   <time name="total">    1.43    1.44</time>
   <energy>
    <i name="e_fr_energy">    -43.99900461 </i>
    <i name="e_wo_entrp">    -43.99900461 </i>
    <i name="e_0_energy">    -43.99900461 </i>
   </energy>
  </scstep>
  <scstep>
   <time name="dav">    1.36    1.37</time>
   <time name="total">    1.36    1.37</time>
   <energy>
    <i name="e_fr_energy">    -44.09102666 </i>
    <i name="e_wo_entrp">    -44.09102666 </i>
    <i name="e_0_energy">    -44.09102666 </i>
   </energy>
  </scstep>
  <scstep>
   <time name="dav">    1.44    1.45</time>
   <time name="total">    1.49    1.50</time>
   <energy>
    <i name="e_fr_energy">    -44.09342591 </i>
    <i name="e_wo_entrp">    -44.09342591 </i>
    <i name="e_0_energy">    -44.09342591 </i>
   </energy>
  </scstep>
  <scstep>
   <time name="dav">    1.33    1.33</time>
   <time name="total">    1.40    1.41</time>
   <energy>
    <i name="e_fr_energy">    -43.60682586 </i>
    <i name="e_wo_entrp">    -43.60682586 </i>
    <i name="e_0_energy">    -43.60682586 </i>
   </energy>
  </scstep>
  <scstep>
   <time name="dav">    1.32    1.32</time>
   <time name="total">    1.40    1.40</time>
   <energy>
    <i name="e_fr_energy">    -43.38493416 </i>
    <i name="e_wo_entrp">    -43.38493416 </i>
    <i name="e_0_energy">    -43.38493416 </i>
   </energy>
  </scstep>
  <scstep>
   <time name="dav">    1.36    1.36</time>
   <time name="total">    1.43    1.44</time>
   <energy>
    <i name="e_fr_energy">    -43.38894449 </i>
    <i name="e_wo_entrp">    -43.38894449 </i>
    <i name="e_0_energy">    -43.38894449 </i>
   </energy>
  </scstep>
  <scstep>
   <time name="dav">    1.42    1.42</time>
   <time name="total">    1.48    1.49</time>
   <energy>
    <i name="e_fr_energy">    -43.38978122 </i>
    <i name="e_wo_entrp">    -43.38978122 </i>
    <i name="e_0_energy">    -43.38978122 </i>
   </energy>
  </scstep>
  <scstep>
   <time name="dav">    1.33    1.33</time>
   <time name="total">    1.40    1.41</time>
   <energy>
    <i name="e_fr_energy">    -43.39001004 </i>
    <i name="e_wo_entrp">    -43.39001004 </i>
    <i name="e_0_energy">    -43.39001004 </i>
   </energy>
  </scstep>
  <scstep>
   <time name="dav">    1.42    1.42</time>
   <time name="total">    1.49    1.49</time>
   <energy>
    <i name="e_fr_energy">    -43.39000880 </i>
    <i name="e_wo_entrp">    -43.39000880 </i>
    <i name="e_0_energy">    -43.39000880 </i>
   </energy>
  </scstep>
  <scstep>
   <time name="dav">    1.37    1.37</time>
   <time name="total">    1.44    1.45</time>
   <energy>
    <i name="e_fr_energy">    -43.39001012 </i>
    <i name="e_wo_entrp">    -43.39001012 </i>
    <i name="e_0_energy">    -43.39001012 </i>
   </energy>
  </scstep>
  <scstep>
   <time name="dav">    1.39    1.39</time>
   <time name="total">    1.47    1.47</time>
   <energy>
    <i name="e_fr_energy">    -43.39000990 </i>
    <i name="e_wo_entrp">    -43.39000990 </i>
    <i name="e_0_energy">    -43.39000990 </i>
   </energy>
  </scstep>
  <scstep>
   <time name="dav">    1.29    1.29</time>
   <time name="total">    1.36    1.36</time>
   <energy>
    <i name="e_fr_energy">    -43.39000994 </i>
    <i name="e_wo_entrp">    -43.39000994 </i>
    <i name="e_0_energy">    -43.39000994 </i>
   </energy>
  </scstep>
  <scstep>
   <time name="dav">    1.12    1.12</time>
   <time name="total">    1.19    1.19</time>
   <energy>
    <i name="e_fr_energy">    -43.39000991 </i>
    <i name="e_wo_entrp">    -43.39000991 </i>
    <i name="e_0_energy">    -43.39000991 </i>
   </energy>
  </scstep>
  <scstep>
   <time name="dav">    1.08    1.08</time>
   <time name="total">    1.10    1.11</time>
   <energy>
    <i name="alphaZ">     13.35522965 </i>
    <i name="ewald">   -911.95039833 </i>
    <i name="hartreedc">    -60.02817462 </i>
    <i name="XCdc">    -71.99036055 </i>
    <i name="pawpsdc">   3421.43711204 </i>
    <i name="pawaedc">  -3281.56034287 </i>
    <i name="eentropy">     -0.00000000 </i>
    <i name="bandstr">     22.81687102 </i>
    <i name="atom">    824.53005375 </i>
    <i name="e_fr_energy">    -43.39000991 </i>
    <i name="e_wo_entrp">    -43.39000991 </i>
    <i name="e_0_energy">    -43.39000991 </i>
   </energy>
  </scstep>
  <structure>
   <crystal>
    <varray name="basis" >
     <v>      -2.72185119       2.72185119       5.44370237 </v>
     <v>       2.72185119      -5.44370237       2.72185119 </v>
     <v>       2.72185119       2.72185119       0.00000000 </v>
    </varray>
    <i name="volume">    161.31810740 </i>
    <varray name="rec_basis" >
     <v>      -0.04592463       0.04592463       0.13777388 </v>
     <v>       0.09184925      -0.09184925       0.09184925 </v>
     <v>       0.22962313       0.13777388       0.04592463 </v>
    </varray>
   </crystal>
   <varray name="positions" >
    <v>       0.99850011       0.00000000       0.00000000 </v>
    <v>       0.50000000       0.00000000       0.50000000 </v>
    <v>       0.25000000       0.50000000       0.75000000 </v>
    <v>       0.75000000       0.50000000       0.25000000 </v>
    <v>       0.18750000       0.12500000       0.56250000 </v>
    <v>       0.68750000       0.12500000       0.06250000 </v>
    <v>       0.43750000       0.62500000       0.31250000 </v>
    <v>       0.93750000       0.62500000       0.81250000 </v>
   </varray>
  </structure>
  <varray name="forces" >
   <v>      -0.05487821       0.05487821       0.11582776 </v>
   <v>       0.00042982      -0.00042982      -0.00853076 </v>
   <v>       0.00089368      -0.00089368       0.00292939 </v>
   <v>      -0.00221693       0.00221693      -0.00017209 </v>
   <v>       0.00867674      -0.00867674      -0.05790166 </v>
   <v>       0.04317157      -0.04317157      -0.04445104 </v>
   <v>       0.00001426      -0.00001426      -0.00052851 </v>
   <v>       0.00390907      -0.00390907      -0.00717308 </v>
  </varray>
  <varray name="stress" >
   <v>      12.54601671      -0.77288376      -0.39772862 </v>
   <v>      -0.77288376      12.54601671       0.39772862 </v>
   <v>      -0.39772868       0.39772868      12.51016456 </v>
  </varray>
  <energy>
   <i name="e_fr_energy">    -43.39000991 </i>
   <i name="e_wo_entrp">    -43.39000991 </i>
   <i name="e_0_energy">    -43.39000991 </i>
  </energy>
  <time name="totalsc">   23.00   23.09</time>
  <eigenvalues>
   <array>
    <dimension dim="1">band</dimension>
    <dimension dim="2">kpoint</dimension>
    <dimension dim="3">spin</dimension>
    <field>eigene</field>
    <field>occ</field>
    <set>
     <set comment="spin 1">
      <set comment="kpoint 1">
       <r>   -6.1549    1.0000 </r>
       <r>   -3.8420    1.0000 </r>
       <r>   -3.4586    1.0000 </r>
       <r>   -3.4463    1.0000 </r>
       <r>   -1.1786    1.0000 </r>
       <r>   -0.6240    1.0000 </r>
       <r>   -0.6037    1.0000 </r>
       <r>    2.2417    1.0000 </r>
       <r>    2.2519    1.0000 </r>
       <r>    3.5660    1.0000 </r>
       <r>    3.5732    1.0000 </r>
       <r>    4.5550    1.0000 </r>
       <r>    4.5707    1.0000 </r>
       <r>    5.7399    1.0000 </r>
       <r>    5.7569    1.0000 </r>
       <r>    5.7633    1.0000 </r>
       <r>    7.2679    0.0000 </r>
       <r>    7.2824    0.0000 </r>
       <r>    7.2918    0.0000 </r>
       <r>    8.3102    0.0000 </r>
       <r>    8.3139    0.0000 </r>
       <r>    8.3240    0.0000 </r>
       <r>    9.0445    0.0000 </r>
       <r>    9.1007    0.0000 </r>
      </set>
      <set comment="kpoint 2">
       <r>   -6.0719    1.0000 </r>
       <r>   -4.1859    1.0000 </r>
       <r>   -3.7723    1.0000 </r>
       <r>   -2.8900    1.0000 </r>
       <r>   -1.1230    1.0000 </r>
       <r>   -1.1118    1.0000 </r>
       <r>    0.2566    1.0000 </r>
       <r>    1.6396    1.0000 </r>
       <r>    2.9925    1.0000 </r>
       <r>    3.5500    1.0000 </r>
       <r>    3.7285    1.0000 </r>
       <r>    3.9144    1.0000 </r>
       <r>    4.4526    1.0000 </r>
       <r>    5.0684    1.0000 </r>
       <r>    5.4992    1.0000 </r>
       <r>    5.5949    1.0000 </r>
       <r>    7.2221    0.0000 </r>
       <r>    7.4891    0.0000 </r>
       <r>    7.7822    0.0000 </r>
       <r>    8.2343    0.0000 </r>
       <r>    8.5747    0.0000 </r>
       <r>    8.6643    0.0000 </r>
       <r>    9.0720    0.0000 </r>
       <r>    9.3722    0.0000 </r>
      </set>
      <set comment="kpoint 3">
       <r>   -5.8244    1.0000 </r>
       <r>   -4.8630    1.0000 </r>
       <r>   -3.5687    1.0000 </r>
       <r>   -2.9103    1.0000 </r>
       <r>   -1.0016    1.0000 </r>
       <r>   -0.9800    1.0000 </r>
       <r>    1.3250    1.0000 </r>
       <r>    1.3771    1.0000 </r>
       <r>    2.7770    1.0000 </r>
       <r>    3.6623    1.0000 </r>
       <r>    3.7745    1.0000 </r>
       <r>    3.8226    1.0000 </r>
       <r>    4.0254    1.0000 </r>
       <r>    4.1798    1.0000 </r>
       <r>    4.9731    1.0000 </r>
       <r>    5.1549    1.0000 </r>
       <r>    7.3338    0.0000 </r>
       <r>    7.7241    0.0000 </r>
       <r>    7.9427    0.0000 </r>
       <r>    8.0650    0.0000 </r>
       <r>    8.9617    0.0000 </r>
       <r>    9.4237    0.0000 </r>
       <r>    9.7959    0.0000 </r>
       <r>    9.8087    0.0000 </r>
      </set>
      <set comment="kpoint 4">
       <r>   -5.4245    1.0000 </r>
       <r>   -5.4107    1.0000 </r>
       <r>   -3.2595    1.0000 </r>
       <r>   -3.2448    1.0000 </r>
       <r>   -0.8660    1.0000 </r>
       <r>   -0.8624    1.0000 </r>
       <r>    1.7850    1.0000 </r>
       <r>    1.7903    1.0000 </r>
       <r>    2.5259    1.0000 </r>
       <r>    2.5376    1.0000 </r>
       <r>    3.8788    1.0000 </r>
       <r>    3.8943    1.0000 </r>
       <r>    4.4422    1.0000 </r>
       <r>    4.4603    1.0000 </r>
       <r>    4.5181    1.0000 </r>
       <r>    4.5212    1.0000 </r>
       <r>    7.6017    0.0000 </r>
       <r>    7.6148    0.0000 </r>
       <r>    7.9002    0.0000 </r>
       <r>    7.9072    0.0000 </r>
       <r>    9.4310    0.0000 </r>
       <r>    9.4410    0.0000 </r>
       <r>   10.2075    0.0000 </r>
       <r>   10.2114    0.0000 </r>
      </set>
      <set comment="kpoint 5">
       <r>   -6.0884    1.0000 </r>
       <r>   -4.0951    1.0000 </r>
       <r>   -3.6531    1.0000 </r>
       <r>   -3.1622    1.0000 </r>
       <r>   -0.8008    1.0000 </r>
       <r>   -0.7908    1.0000 </r>
       <r>   -0.7376    1.0000 </r>
       <r>    2.1194    1.0000 </r>
       <r>    2.8632    1.0000 </r>
       <r>    3.2654    1.0000 </r>
       <r>    3.9326    1.0000 </r>
       <r>    4.5915    1.0000 </r>
       <r>    4.6072    1.0000 </r>
       <r>    5.0881    1.0000 </r>
       <r>    5.6367    1.0000 </r>
       <r>    5.6554    1.0000 </r>
       <r>    6.8893    0.0000 </r>
       <r>    7.3106    0.0000 </r>
       <r>    7.7342    0.0000 </r>
       <r>    8.3656    0.0000 </r>
       <r>    8.4683    0.0000 </r>
       <r>    8.4798    0.0000 </r>
       <r>    8.6986    0.0000 </r>
       <r>    9.1287    0.0000 </r>
      </set>
      <set comment="kpoint 6">
       <r>   -5.9797    1.0000 </r>
       <r>   -4.2868    1.0000 </r>
       <r>   -4.1066    1.0000 </r>
       <r>   -2.4522    1.0000 </r>
       <r>   -1.4645    1.0000 </r>
       <r>   -0.6172    1.0000 </r>
       <r>   -0.0471    1.0000 </r>
       <r>    1.6433    1.0000 </r>
       <r>    3.2687    1.0000 </r>
       <r>    3.6346    1.0000 </r>
       <r>    3.8777    1.0000 </r>
       <r>    4.0976    1.0000 </r>
       <r>    4.6119    1.0000 </r>
       <r>    4.7119    1.0000 </r>
       <r>    5.2064    1.0000 </r>
       <r>    5.2558    1.0000 </r>
       <r>    6.8810    0.0000 </r>
       <r>    7.8440    0.0000 </r>
       <r>    7.9282    0.0000 </r>
       <r>    7.9953    0.0000 </r>
       <r>    8.9963    0.0000 </r>
       <r>    9.0735    0.0000 </r>
       <r>    9.2126    0.0000 </r>
       <r>    9.3013    0.0000 </r>
      </set>
      <set comment="kpoint 7">
       <r>   -5.7062    1.0000 </r>
       <r>   -4.9134    1.0000 </r>
       <r>   -3.9754    1.0000 </r>
       <r>   -2.6292    1.0000 </r>
       <r>   -1.2907    1.0000 </r>
       <r>   -0.3709    1.0000 </r>
       <r>    0.9699    1.0000 </r>
       <r>    1.5184    1.0000 </r>
       <r>    2.7201    1.0000 </r>
       <r>    3.4090    1.0000 </r>
       <r>    3.8002    1.0000 </r>
       <r>    4.3823    1.0000 </r>
       <r>    4.3906    1.0000 </r>
       <r>    4.4269    1.0000 </r>
       <r>    4.6260    1.0000 </r>
       <r>    4.6317    1.0000 </r>
       <r>    7.0464    0.0000 </r>
       <r>    7.5142    0.0000 </r>
       <r>    8.0792    0.0000 </r>
       <r>    8.1603    0.0000 </r>
       <r>    9.1029    0.0000 </r>
       <r>    9.8515    0.0000 </r>
       <r>    9.9458    0.0000 </r>
       <r>    9.9812    0.0000 </r>
      </set>
      <set comment="kpoint 8">
       <r>   -5.4335    1.0000 </r>
       <r>   -5.2718    1.0000 </r>
       <r>   -3.7227    1.0000 </r>
       <r>   -3.1739    1.0000 </r>
       <r>   -0.9706    1.0000 </r>
       <r>   -0.2412    1.0000 </r>
       <r>    1.8052    1.0000 </r>
       <r>    1.9847    1.0000 </r>
       <r>    2.1575    1.0000 </r>
       <r>    2.5820    1.0000 </r>
       <r>    3.6696    1.0000 </r>
       <r>    4.0699    1.0000 </r>
       <r>    4.1042    1.0000 </r>
       <r>    4.1843    1.0000 </r>
       <r>    4.8023    1.0000 </r>
       <r>    5.0037    1.0000 </r>
       <r>    7.2070    0.0000 </r>
       <r>    7.3853    0.0000 </r>
       <r>    7.9295    0.0000 </r>
       <r>    8.0631    0.0000 </r>
       <r>    8.9559    0.0000 </r>
       <r>    9.3638    0.0000 </r>
       <r>    9.5669    0.0000 </r>
       <r>   10.8362    0.0000 </r>
      </set>
      <set comment="kpoint 9">
       <r>   -5.8108    1.0000 </r>
       <r>   -4.6869    1.0000 </r>
       <r>   -3.6237    1.0000 </r>
       <r>   -3.4183    1.0000 </r>
       <r>   -0.9047    1.0000 </r>
       <r>   -0.5908    1.0000 </r>
       <r>    1.3716    1.0000 </r>
       <r>    1.6732    1.0000 </r>
       <r>    2.9491    1.0000 </r>
       <r>    3.4316    1.0000 </r>
       <r>    3.4484    1.0000 </r>
       <r>    3.6878    1.0000 </r>
       <r>    3.9892    1.0000 </r>
       <r>    4.0177    1.0000 </r>
       <r>    5.2758    1.0000 </r>
       <r>    5.3607    1.0000 </r>
       <r>    7.0810    0.0000 </r>
       <r>    7.7163    0.0000 </r>
       <r>    7.8137    0.0000 </r>
       <r>    8.1168    0.0000 </r>
       <r>    8.6944    0.0000 </r>
       <r>    8.8770    0.0000 </r>
       <r>    9.0021    0.0000 </r>
       <r>    9.8383    0.0000 </r>
      </set>
      <set comment="kpoint 10">
       <r>   -6.0314    1.0000 </r>
       <r>   -3.9700    1.0000 </r>
       <r>   -3.9325    1.0000 </r>
       <r>   -3.2929    1.0000 </r>
       <r>   -1.0042    1.0000 </r>
       <r>   -0.8865    1.0000 </r>
       <r>    0.2500    1.0000 </r>
       <r>    2.1587    1.0000 </r>
       <r>    2.7545    1.0000 </r>
       <r>    3.4054    1.0000 </r>
       <r>    3.8999    1.0000 </r>
       <r>    4.0364    1.0000 </r>
       <r>    4.3703    1.0000 </r>
       <r>    4.6952    1.0000 </r>
       <r>    5.4105    1.0000 </r>
       <r>    5.6652    1.0000 </r>
       <r>    6.9965    0.0000 </r>
       <r>    7.6465    0.0000 </r>
       <r>    7.7999    0.0000 </r>
       <r>    8.3962    0.0000 </r>
       <r>    8.4457    0.0000 </r>
       <r>    8.4832    0.0000 </r>
       <r>    8.6567    0.0000 </r>
       <r>    9.0167    0.0000 </r>
      </set>
      <set comment="kpoint 11">
       <r>   -5.8904    1.0000 </r>
       <r>   -4.6083    1.0000 </r>
       <r>   -3.7745    1.0000 </r>
       <r>   -2.7777    1.0000 </r>
       <r>   -1.1913    1.0000 </r>
       <r>   -1.0240    1.0000 </r>
       <r>    0.0865    1.0000 </r>
       <r>    2.4521    1.0000 </r>
       <r>    3.0509    1.0000 </r>
       <r>    3.7038    1.0000 </r>
       <r>    3.8272    1.0000 </r>
       <r>    4.2914    1.0000 </r>
       <r>    4.7003    1.0000 </r>
       <r>    4.7160    1.0000 </r>
       <r>    5.3907    1.0000 </r>
       <r>    5.4079    1.0000 </r>
       <r>    6.6080    0.0000 </r>
       <r>    7.4318    0.0000 </r>
       <r>    7.4422    0.0000 </r>
       <r>    7.9193    0.0000 </r>
       <r>    8.1751    0.0000 </r>
       <r>    8.8276    0.0000 </r>
       <r>    8.8398    0.0000 </r>
       <r>    9.1109    0.0000 </r>
      </set>
      <set comment="kpoint 12">
       <r>   -5.7568    1.0000 </r>
       <r>   -4.6349    1.0000 </r>
       <r>   -4.2740    1.0000 </r>
       <r>   -2.1842    1.0000 </r>
       <r>   -1.7869    1.0000 </r>
       <r>   -0.4089    1.0000 </r>
       <r>    0.3226    1.0000 </r>
       <r>    2.0697    1.0000 </r>
       <r>    3.0812    1.0000 </r>
       <r>    3.5150    1.0000 </r>
       <r>    3.9335    1.0000 </r>
       <r>    4.3496    1.0000 </r>
       <r>    4.4376    1.0000 </r>
       <r>    4.8356    1.0000 </r>
       <r>    4.9012    1.0000 </r>
       <r>    5.0843    1.0000 </r>
       <r>    6.6616    0.0000 </r>
       <r>    7.7217    0.0000 </r>
       <r>    7.9810    0.0000 </r>
       <r>    7.9920    0.0000 </r>
       <r>    8.1084    0.0000 </r>
       <r>    8.9418    0.0000 </r>
       <r>    9.0222    0.0000 </r>
       <r>    9.2885    0.0000 </r>
      </set>
      <set comment="kpoint 13">
       <r>   -5.4589    1.0000 </r>
       <r>   -4.8383    1.0000 </r>
       <r>   -4.5099    1.0000 </r>
       <r>   -2.9340    1.0000 </r>
       <r>   -0.9816    1.0000 </r>
       <r>    0.5606    1.0000 </r>
       <r>    0.5693    1.0000 </r>
       <r>    1.9569    1.0000 </r>
       <r>    2.8031    1.0000 </r>
       <r>    2.9891    1.0000 </r>
       <r>    3.2521    1.0000 </r>
       <r>    4.3249    1.0000 </r>
       <r>    4.3287    1.0000 </r>
       <r>    4.6972    1.0000 </r>
       <r>    4.7323    1.0000 </r>
       <r>    4.7928    1.0000 </r>
       <r>    6.8720    0.0000 </r>
       <r>    7.4227    0.0000 </r>
       <r>    7.5761    0.0000 </r>
       <r>    8.4343    0.0000 </r>
       <r>    8.8419    0.0000 </r>
       <r>    9.1876    0.0000 </r>
       <r>    9.3705    0.0000 </r>
       <r>    9.7127    0.0000 </r>
      </set>
      <set comment="kpoint 14">
       <r>   -5.3192    1.0000 </r>
       <r>   -4.9998    1.0000 </r>
       <r>   -4.2521    1.0000 </r>
       <r>   -3.5819    1.0000 </r>
       <r>   -0.4304    1.0000 </r>
       <r>    0.4398    1.0000 </r>
       <r>    1.7303    1.0000 </r>
       <r>    2.0689    1.0000 </r>
       <r>    2.1626    1.0000 </r>
       <r>    2.3425    1.0000 </r>
       <r>    3.5497    1.0000 </r>
       <r>    3.8017    1.0000 </r>
       <r>    3.8205    1.0000 </r>
       <r>    4.5297    1.0000 </r>
       <r>    4.8785    1.0000 </r>
       <r>    5.0506    1.0000 </r>
       <r>    6.8569    0.0000 </r>
       <r>    7.2657    0.0000 </r>
       <r>    7.7730    0.0000 </r>
       <r>    8.2964    0.0000 </r>
       <r>    8.7657    0.0000 </r>
       <r>    9.1970    0.0000 </r>
       <r>    9.3419    0.0000 </r>
       <r>    9.9013    0.0000 </r>
      </set>
      <set comment="kpoint 15">
       <r>   -5.6658    1.0000 </r>
       <r>   -4.3882    1.0000 </r>
       <r>   -4.0811    1.0000 </r>
       <r>   -3.9119    1.0000 </r>
       <r>   -0.3131    1.0000 </r>
       <r>   -0.2024    1.0000 </r>
       <r>    0.9534    1.0000 </r>
       <r>    2.4146    1.0000 </r>
       <r>    2.9812    1.0000 </r>
       <r>    3.2200    1.0000 </r>
       <r>    3.3924    1.0000 </r>
       <r>    3.4254    1.0000 </r>
       <r>    3.9446    1.0000 </r>
       <r>    4.3550    1.0000 </r>
       <r>    4.7059    1.0000 </r>
       <r>    5.4165    1.0000 </r>
       <r>    6.5659    0.0000 </r>
       <r>    7.7715    0.0000 </r>
       <r>    7.9207    0.0000 </r>
       <r>    8.1113    0.0000 </r>
       <r>    8.2842    0.0000 </r>
       <r>    8.8770    0.0000 </r>
       <r>    9.2332    0.0000 </r>
       <r>    9.9450    0.0000 </r>
      </set>
      <set comment="kpoint 16">
       <r>   -5.8590    1.0000 </r>
       <r>   -4.4240    1.0000 </r>
       <r>   -3.6492    1.0000 </r>
       <r>   -3.6363    1.0000 </r>
       <r>   -0.9822    1.0000 </r>
       <r>   -0.1596    1.0000 </r>
       <r>   -0.0771    1.0000 </r>
       <r>    2.9316    1.0000 </r>
       <r>    3.0162    1.0000 </r>
       <r>    3.1661    1.0000 </r>
       <r>    3.9070    1.0000 </r>
       <r>    4.2347    1.0000 </r>
       <r>    4.2659    1.0000 </r>
       <r>    4.3735    1.0000 </r>
       <r>    4.7568    1.0000 </r>
       <r>    5.6116    1.0000 </r>
       <r>    6.5535    0.0000 </r>
       <r>    7.4130    0.0000 </r>
       <r>    7.8938    0.0000 </r>
       <r>    8.0056    0.0000 </r>
       <r>    8.6188    0.0000 </r>
       <r>    8.6465    0.0000 </r>
       <r>    8.8367    0.0000 </r>
       <r>    9.0349    0.0000 </r>
      </set>
      <set comment="kpoint 17">
       <r>   -5.5662    1.0000 </r>
       <r>   -5.1285    1.0000 </r>
       <r>   -3.8304    1.0000 </r>
       <r>   -2.3030    1.0000 </r>
       <r>   -1.7567    1.0000 </r>
       <r>   -1.1692    1.0000 </r>
       <r>    1.2197    1.0000 </r>
       <r>    2.4912    1.0000 </r>
       <r>    2.8511    1.0000 </r>
       <r>    2.9407    1.0000 </r>
       <r>    4.4345    1.0000 </r>
       <r>    4.5329    1.0000 </r>
       <r>    4.8784    1.0000 </r>
       <r>    4.8944    1.0000 </r>
       <r>    5.1176    1.0000 </r>
       <r>    5.1340    1.0000 </r>
       <r>    6.4691    0.0000 </r>
       <r>    6.6239    0.0000 </r>
       <r>    7.3986    0.0000 </r>
       <r>    7.6361    0.0000 </r>
       <r>    7.8965    0.0000 </r>
       <r>    9.0738    0.0000 </r>
       <r>    9.1560    0.0000 </r>
       <r>    9.1685    0.0000 </r>
      </set>
      <set comment="kpoint 18">
       <r>   -5.4097    1.0000 </r>
       <r>   -5.1427    1.0000 </r>
       <r>   -4.1553    1.0000 </r>
       <r>   -2.6761    1.0000 </r>
       <r>   -1.3274    1.0000 </r>
       <r>   -0.7073    1.0000 </r>
       <r>    1.4685    1.0000 </r>
       <r>    2.2315    1.0000 </r>
       <r>    2.6467    1.0000 </r>
       <r>    2.9996    1.0000 </r>
       <r>    4.0876    1.0000 </r>
       <r>    4.5966    1.0000 </r>
       <r>    4.6202    1.0000 </r>
       <r>    4.6469    1.0000 </r>
       <r>    4.7969    1.0000 </r>
       <r>    5.1072    1.0000 </r>
       <r>    6.5327    0.0000 </r>
       <r>    7.0487    0.0000 </r>
       <r>    7.3297    0.0000 </r>
       <r>    8.1760    0.0000 </r>
       <r>    8.1860    0.0000 </r>
       <r>    8.9701    0.0000 </r>
       <r>    9.1409    0.0000 </r>
       <r>    9.1647    0.0000 </r>
      </set>
      <set comment="kpoint 19">
       <r>   -5.0897    1.0000 </r>
       <r>   -5.0010    1.0000 </r>
       <r>   -4.6406    1.0000 </r>
       <r>   -3.4691    1.0000 </r>
       <r>   -0.3658    1.0000 </r>
       <r>    0.2066    1.0000 </r>
       <r>    1.5817    1.0000 </r>
       <r>    1.8936    1.0000 </r>
       <r>    2.5599    1.0000 </r>
       <r>    3.0917    1.0000 </r>
       <r>    3.2014    1.0000 </r>
       <r>    3.9637    1.0000 </r>
       <r>    4.1042    1.0000 </r>
       <r>    4.3772    1.0000 </r>
       <r>    4.8142    1.0000 </r>
       <r>    5.0533    1.0000 </r>
       <r>    6.7564    0.0000 </r>
       <r>    7.6388    0.0000 </r>
       <r>    7.6630    0.0000 </r>
       <r>    7.8707    0.0000 </r>
       <r>    8.6997    0.0000 </r>
       <r>    9.2016    0.0000 </r>
       <r>    9.3416    0.0000 </r>
       <r>    9.5087    0.0000 </r>
      </set>
      <set comment="kpoint 20">
       <r>   -5.0780    1.0000 </r>
       <r>   -4.7169    1.0000 </r>
       <r>   -4.6092    1.0000 </r>
       <r>   -4.1188    1.0000 </r>
       <r>    0.3871    1.0000 </r>
       <r>    0.9380    1.0000 </r>
       <r>    1.2641    1.0000 </r>
       <r>    1.3301    1.0000 </r>
       <r>    2.8255    1.0000 </r>
       <r>    2.9544    1.0000 </r>
       <r>    3.3665    1.0000 </r>
       <r>    3.5341    1.0000 </r>
       <r>    3.6270    1.0000 </r>
       <r>    3.9902    1.0000 </r>
       <r>    4.8617    1.0000 </r>
       <r>    5.0738    1.0000 </r>
       <r>    6.9985    0.0000 </r>
       <r>    7.1905    0.0000 </r>
       <r>    8.2169    0.0000 </r>
       <r>    8.5319    0.0000 </r>
       <r>    8.5406    0.0000 </r>
       <r>    8.9377    0.0000 </r>
       <r>    9.2404    0.0000 </r>
       <r>    9.5082    0.0000 </r>
      </set>
      <set comment="kpoint 21">
       <r>   -5.3929    1.0000 </r>
       <r>   -4.6158    1.0000 </r>
       <r>   -4.3277    1.0000 </r>
       <r>   -3.9750    1.0000 </r>
       <r>   -0.0774    1.0000 </r>
       <r>    0.3128    1.0000 </r>
       <r>    0.7879    1.0000 </r>
       <r>    2.4168    1.0000 </r>
       <r>    3.1339    1.0000 </r>
       <r>    3.2600    1.0000 </r>
       <r>    3.4052    1.0000 </r>
       <r>    3.5701    1.0000 </r>
       <r>    3.7461    1.0000 </r>
       <r>    3.9742    1.0000 </r>
       <r>    4.6711    1.0000 </r>
       <r>    5.3197    1.0000 </r>
       <r>    6.5339    0.0000 </r>
       <r>    7.5792    0.0000 </r>
       <r>    7.7621    0.0000 </r>
       <r>    8.1819    0.0000 </r>
       <r>    8.7427    0.0000 </r>
       <r>    9.1016    0.0000 </r>
       <r>    9.3913    0.0000 </r>
       <r>    9.4335    0.0000 </r>
      </set>
      <set comment="kpoint 22">
       <r>   -5.5593    1.0000 </r>
       <r>   -4.9530    1.0000 </r>
       <r>   -3.9414    1.0000 </r>
       <r>   -3.1993    1.0000 </r>
       <r>   -0.8997    1.0000 </r>
       <r>   -0.7403    1.0000 </r>
       <r>    1.0061    1.0000 </r>
       <r>    2.7118    1.0000 </r>
       <r>    3.0189    1.0000 </r>
       <r>    3.0283    1.0000 </r>
       <r>    3.9639    1.0000 </r>
       <r>    4.3481    1.0000 </r>
       <r>    4.4636    1.0000 </r>
       <r>    4.4963    1.0000 </r>
       <r>    4.5523    1.0000 </r>
       <r>    5.3889    1.0000 </r>
       <r>    6.3409    0.0000 </r>
       <r>    6.9228    0.0000 </r>
       <r>    7.7629    0.0000 </r>
       <r>    8.0444    0.0000 </r>
       <r>    8.4294    0.0000 </r>
       <r>    8.9406    0.0000 </r>
       <r>    9.0524    0.0000 </r>
       <r>    9.1424    0.0000 </r>
      </set>
      <set comment="kpoint 23">
       <r>   -6.0764    1.0000 </r>
       <r>   -3.7994    1.0000 </r>
       <r>   -3.4639    1.0000 </r>
       <r>   -3.3123    1.0000 </r>
       <r>   -1.1009    1.0000 </r>
       <r>   -0.6448    1.0000 </r>
       <r>   -0.6151    1.0000 </r>
       <r>    2.0825    1.0000 </r>
       <r>    2.2640    1.0000 </r>
       <r>    3.1952    1.0000 </r>
       <r>    3.4702    1.0000 </r>
       <r>    4.0090    1.0000 </r>
       <r>    4.4273    1.0000 </r>
       <r>    5.0902    1.0000 </r>
       <r>    5.4703    1.0000 </r>
       <r>    5.6594    1.0000 </r>
       <r>    7.7565    0.0000 </r>
       <r>    7.7646    0.0000 </r>
       <r>    8.0262    0.0000 </r>
       <r>    8.2996    0.0000 </r>
       <r>    8.5257    0.0000 </r>
       <r>    8.5928    0.0000 </r>
       <r>    8.9867    0.0000 </r>
       <r>    9.4198    0.0000 </r>
      </set>
      <set comment="kpoint 24">
       <r>   -5.9856    1.0000 </r>
       <r>   -4.1671    1.0000 </r>
       <r>   -3.7632    1.0000 </r>
       <r>   -2.6870    1.0000 </r>
       <r>   -1.2164    1.0000 </r>
       <r>   -1.0016    1.0000 </r>
       <r>    0.1834    1.0000 </r>
       <r>    1.6181    1.0000 </r>
       <r>    2.7790    1.0000 </r>
       <r>    3.0769    1.0000 </r>
       <r>    3.5941    1.0000 </r>
       <r>    3.8992    1.0000 </r>
       <r>    4.2637    1.0000 </r>
       <r>    4.4196    1.0000 </r>
       <r>    5.3322    1.0000 </r>
       <r>    5.5887    1.0000 </r>
       <r>    7.7299    0.0000 </r>
       <r>    8.0114    0.0000 </r>
       <r>    8.1959    0.0000 </r>
       <r>    8.3410    0.0000 </r>
       <r>    8.5393    0.0000 </r>
       <r>    8.8059    0.0000 </r>
       <r>    9.0317    0.0000 </r>
       <r>    9.6960    0.0000 </r>
      </set>
      <set comment="kpoint 25">
       <r>   -5.7309    1.0000 </r>
       <r>   -4.8263    1.0000 </r>
       <r>   -3.5917    1.0000 </r>
       <r>   -2.6987    1.0000 </r>
       <r>   -1.1698    1.0000 </r>
       <r>   -0.8310    1.0000 </r>
       <r>    1.2112    1.0000 </r>
       <r>    1.4406    1.0000 </r>
       <r>    2.6540    1.0000 </r>
       <r>    3.1784    1.0000 </r>
       <r>    3.2783    1.0000 </r>
       <r>    3.4995    1.0000 </r>
       <r>    3.9416    1.0000 </r>
       <r>    4.5058    1.0000 </r>
       <r>    4.5143    1.0000 </r>
       <r>    5.2988    1.0000 </r>
       <r>    7.8593    0.0000 </r>
       <r>    8.2087    0.0000 </r>
       <r>    8.3780    0.0000 </r>
       <r>    8.5757    0.0000 </r>
       <r>    8.9425    0.0000 </r>
       <r>    8.9932    0.0000 </r>
       <r>    9.3775    0.0000 </r>
       <r>    9.4569    0.0000 </r>
      </set>
      <set comment="kpoint 26">
       <r>   -5.3687    1.0000 </r>
       <r>   -5.3164    1.0000 </r>
       <r>   -3.3067    1.0000 </r>
       <r>   -3.0930    1.0000 </r>
       <r>   -0.9869    1.0000 </r>
       <r>   -0.7172    1.0000 </r>
       <r>    1.7911    1.0000 </r>
       <r>    1.8284    1.0000 </r>
       <r>    2.3613    1.0000 </r>
       <r>    2.4300    1.0000 </r>
       <r>    3.4577    1.0000 </r>
       <r>    3.6014    1.0000 </r>
       <r>    3.7369    1.0000 </r>
       <r>    3.8407    1.0000 </r>
       <r>    4.7842    1.0000 </r>
       <r>    5.1095    1.0000 </r>
       <r>    8.0578    0.0000 </r>
       <r>    8.1426    0.0000 </r>
       <r>    8.3190    0.0000 </r>
       <r>    8.5099    0.0000 </r>
       <r>    9.0279    0.0000 </r>
       <r>    9.4814    0.0000 </r>
       <r>    9.8774    0.0000 </r>
       <r>    9.9742    0.0000 </r>
      </set>
      <set comment="kpoint 27">
       <r>   -5.7637    1.0000 </r>
       <r>   -4.7557    1.0000 </r>
       <r>   -3.4531    1.0000 </r>
       <r>   -2.9911    1.0000 </r>
       <r>   -1.0242    1.0000 </r>
       <r>   -0.8954    1.0000 </r>
       <r>    1.3189    1.0000 </r>
       <r>    1.4773    1.0000 </r>
       <r>    2.6679    1.0000 </r>
       <r>    3.1232    1.0000 </r>
       <r>    3.3691    1.0000 </r>
       <r>    3.5491    1.0000 </r>
       <r>    3.8739    1.0000 </r>
       <r>    4.1634    1.0000 </r>
       <r>    4.5044    1.0000 </r>
       <r>    5.5373    1.0000 </r>
       <r>    7.9811    0.0000 </r>
       <r>    8.0715    0.0000 </r>
       <r>    8.4772    0.0000 </r>
       <r>    8.6258    0.0000 </r>
       <r>    8.7451    0.0000 </r>
       <r>    8.9942    0.0000 </r>
       <r>    9.0135    0.0000 </r>
       <r>    9.5821    0.0000 </r>
      </set>
      <set comment="kpoint 28">
       <r>   -6.0018    1.0000 </r>
       <r>   -4.0688    1.0000 </r>
       <r>   -3.6944    1.0000 </r>
       <r>   -2.9538    1.0000 </r>
       <r>   -1.0994    1.0000 </r>
       <r>   -1.0667    1.0000 </r>
       <r>    0.2773    1.0000 </r>
       <r>    1.7548    1.0000 </r>
       <r>    2.6012    1.0000 </r>
       <r>    3.3069    1.0000 </r>
       <r>    3.5341    1.0000 </r>
       <r>    3.5782    1.0000 </r>
       <r>    4.3066    1.0000 </r>
       <r>    4.6118    1.0000 </r>
       <r>    5.2181    1.0000 </r>
       <r>    5.6230    1.0000 </r>
       <r>    7.8806    0.0000 </r>
       <r>    7.9708    0.0000 </r>
       <r>    8.0261    0.0000 </r>
       <r>    8.3197    0.0000 </r>
       <r>    8.6138    0.0000 </r>
       <r>    8.7722    0.0000 </r>
       <r>    9.0286    0.0000 </r>
       <r>    9.4685    0.0000 </r>
      </set>
      <set comment="kpoint 29">
       <r>   -5.9679    1.0000 </r>
       <r>   -4.1764    1.0000 </r>
       <r>   -3.6326    1.0000 </r>
       <r>   -3.0011    1.0000 </r>
       <r>   -0.8746    1.0000 </r>
       <r>   -0.8394    1.0000 </r>
       <r>   -0.5223    1.0000 </r>
       <r>    2.2002    1.0000 </r>
       <r>    2.8335    1.0000 </r>
       <r>    2.8501    1.0000 </r>
       <r>    3.9446    1.0000 </r>
       <r>    4.0439    1.0000 </r>
       <r>    4.5065    1.0000 </r>
       <r>    4.5245    1.0000 </r>
       <r>    5.0920    1.0000 </r>
       <r>    5.5108    1.0000 </r>
       <r>    7.4019    0.0000 </r>
       <r>    7.8292    0.0000 </r>
       <r>    8.1960    0.0000 </r>
       <r>    8.3418    0.0000 </r>
       <r>    8.4202    0.0000 </r>
       <r>    8.7926    0.0000 </r>
       <r>    8.9246    0.0000 </r>
       <r>    9.0221    0.0000 </r>
      </set>
      <set comment="kpoint 30">
       <r>   -5.8520    1.0000 </r>
       <r>   -4.2291    1.0000 </r>
       <r>   -4.1956    1.0000 </r>
       <r>   -2.2460    1.0000 </r>
       <r>   -1.6391    1.0000 </r>
       <r>   -0.3263    1.0000 </r>
       <r>   -0.1364    1.0000 </r>
       <r>    1.8034    1.0000 </r>
       <r>    2.7988    1.0000 </r>
       <r>    3.2731    1.0000 </r>
       <r>    3.7282    1.0000 </r>
       <r>    3.8951    1.0000 </r>
       <r>    4.2968    1.0000 </r>
       <r>    4.3986    1.0000 </r>
       <r>    4.8188    1.0000 </r>
       <r>    5.4819    1.0000 </r>
       <r>    7.4372    0.0000 </r>
       <r>    8.0475    0.0000 </r>
       <r>    8.3378    0.0000 </r>
       <r>    8.3901    0.0000 </r>
       <r>    8.7480    0.0000 </r>
       <r>    8.9183    0.0000 </r>
       <r>    9.0104    0.0000 </r>
       <r>    9.0993    0.0000 </r>
      </set>
      <set comment="kpoint 31">
       <r>   -5.5723    1.0000 </r>
       <r>   -4.8345    1.0000 </r>
       <r>   -4.0712    1.0000 </r>
       <r>   -2.6061    1.0000 </r>
       <r>   -1.2744    1.0000 </r>
       <r>   -0.0944    1.0000 </r>
       <r>    0.8566    1.0000 </r>
       <r>    1.6738    1.0000 </r>
       <r>    2.7048    1.0000 </r>
       <r>    2.9685    1.0000 </r>
       <r>    3.0929    1.0000 </r>
       <r>    3.7051    1.0000 </r>
       <r>    4.1454    1.0000 </r>
       <r>    4.5102    1.0000 </r>
       <r>    4.6826    1.0000 </r>
       <r>    4.8944    1.0000 </r>
       <r>    7.6106    0.0000 </r>
       <r>    7.7912    0.0000 </r>
       <r>    8.2902    0.0000 </r>
       <r>    8.6960    0.0000 </r>
       <r>    9.0082    0.0000 </r>
       <r>    9.2133    0.0000 </r>
       <r>    9.4900    0.0000 </r>
       <r>    9.6880    0.0000 </r>
      </set>
      <set comment="kpoint 32">
       <r>   -5.3409    1.0000 </r>
       <r>   -5.1328    1.0000 </r>
       <r>   -3.8205    1.0000 </r>
       <r>   -3.2059    1.0000 </r>
       <r>   -0.8502    1.0000 </r>
       <r>   -0.0487    1.0000 </r>
       <r>    1.9270    1.0000 </r>
       <r>    2.0138    1.0000 </r>
       <r>    2.0230    1.0000 </r>
       <r>    2.1637    1.0000 </r>
       <r>    3.3359    1.0000 </r>
       <r>    3.8114    1.0000 </r>
       <r>    3.9027    1.0000 </r>
       <r>    4.1451    1.0000 </r>
       <r>    4.1952    1.0000 </r>
       <r>    5.2140    1.0000 </r>
       <r>    7.4065    0.0000 </r>
       <r>    7.9459    0.0000 </r>
       <r>    8.3068    0.0000 </r>
       <r>    8.6606    0.0000 </r>
       <r>    9.0822    0.0000 </r>
       <r>    9.3775    0.0000 </r>
       <r>    9.4997    0.0000 </r>
       <r>    9.7344    0.0000 </r>
      </set>
      <set comment="kpoint 33">
       <r>   -5.7075    1.0000 </r>
       <r>   -4.5431    1.0000 </r>
       <r>   -3.6786    1.0000 </r>
       <r>   -3.5079    1.0000 </r>
       <r>   -0.7065    1.0000 </r>
       <r>   -0.5102    1.0000 </r>
       <r>    1.1377    1.0000 </r>
       <r>    1.8956    1.0000 </r>
       <r>    2.7440    1.0000 </r>
       <r>    3.1475    1.0000 </r>
       <r>    3.2605    1.0000 </r>
       <r>    3.6688    1.0000 </r>
       <r>    3.7305    1.0000 </r>
       <r>    3.8839    1.0000 </r>
       <r>    4.7175    1.0000 </r>
       <r>    5.2543    1.0000 </r>
       <r>    7.2761    0.0000 </r>
       <r>    8.2666    0.0000 </r>
       <r>    8.3670    0.0000 </r>
       <r>    8.4650    0.0000 </r>
       <r>    8.6578    0.0000 </r>
       <r>    8.8254    0.0000 </r>
       <r>    9.1671    0.0000 </r>
       <r>    9.4745    0.0000 </r>
      </set>
      <set comment="kpoint 34">
       <r>   -5.9189    1.0000 </r>
       <r>   -4.0038    1.0000 </r>
       <r>   -3.8198    1.0000 </r>
       <r>   -3.3401    1.0000 </r>
       <r>   -0.9886    1.0000 </r>
       <r>   -0.6387    1.0000 </r>
       <r>    0.0989    1.0000 </r>
       <r>    2.3286    1.0000 </r>
       <r>    2.6548    1.0000 </r>
       <r>    3.1694    1.0000 </r>
       <r>    3.4990    1.0000 </r>
       <r>    3.7205    1.0000 </r>
       <r>    4.4143    1.0000 </r>
       <r>    4.4591    1.0000 </r>
       <r>    5.0560    1.0000 </r>
       <r>    5.1643    1.0000 </r>
       <r>    7.3492    0.0000 </r>
       <r>    7.9218    0.0000 </r>
       <r>    8.1079    0.0000 </r>
       <r>    8.2363    0.0000 </r>
       <r>    8.3909    0.0000 </r>
       <r>    9.0788    0.0000 </r>
       <r>    9.1409    0.0000 </r>
       <r>    9.2769    0.0000 </r>
      </set>
      <set comment="kpoint 35">
       <r>   -5.7293    1.0000 </r>
       <r>   -4.7091    1.0000 </r>
       <r>   -3.7284    1.0000 </r>
       <r>   -2.5993    1.0000 </r>
       <r>   -1.3651    1.0000 </r>
       <r>   -1.0505    1.0000 </r>
       <r>    0.4527    1.0000 </r>
       <r>    2.5712    1.0000 </r>
       <r>    2.6876    1.0000 </r>
       <r>    3.3481    1.0000 </r>
       <r>    3.5106    1.0000 </r>
       <r>    4.1382    1.0000 </r>
       <r>    4.3361    1.0000 </r>
       <r>    4.6849    1.0000 </r>
       <r>    4.7170    1.0000 </r>
       <r>    5.3416    1.0000 </r>
       <r>    7.0531    0.0000 </r>
       <r>    7.3191    0.0000 </r>
       <r>    7.9684    0.0000 </r>
       <r>    8.0527    0.0000 </r>
       <r>    8.3337    0.0000 </r>
       <r>    8.7797    0.0000 </r>
       <r>    9.0318    0.0000 </r>
       <r>    9.0712    0.0000 </r>
      </set>
      <set comment="kpoint 36">
       <r>   -5.5895    1.0000 </r>
       <r>   -4.7320    1.0000 </r>
       <r>   -4.1779    1.0000 </r>
       <r>   -2.2673    1.0000 </r>
       <r>   -1.6792    1.0000 </r>
       <r>   -0.4793    1.0000 </r>
       <r>    0.6826    1.0000 </r>
[...]
       <r>   -3.0452    1.0000 </r>
       <r>   -2.1129    1.0000 </r>
       <r>   -1.8402    1.0000 </r>
       <r>   -0.8741    1.0000 </r>
       <r>   -0.8108    1.0000 </r>
       <r>   -0.4452    1.0000 </r>
       <r>    2.1118    1.0000 </r>
       <r>    2.2517    1.0000 </r>
       <r>    2.7224    1.0000 </r>
       <r>    2.7693    1.0000 </r>
       <r>    2.8725    1.0000 </r>
       <r>    3.8900    1.0000 </r>
       <r>    3.9156    1.0000 </r>
       <r>    4.5442    1.0000 </r>
       <r>    6.9539    0.0000 </r>
       <r>    7.5655    0.0000 </r>
       <r>    7.9285    0.0000 </r>
       <r>    7.9966    0.0000 </r>
       <r>    8.2822    0.0000 </r>
       <r>    8.5678    0.0000 </r>
       <r>    8.8981    0.0000 </r>
       <r>    9.0423    0.0000 </r>
      </set>
      <set comment="kpoint 230">
       <r>   -3.9549    1.0000 </r>
       <r>   -3.9078    1.0000 </r>
       <r>   -2.8054    1.0000 </r>
       <r>   -2.2910    1.0000 </r>
       <r>   -1.7159    1.0000 </r>
       <r>   -1.1114    1.0000 </r>
       <r>   -0.8870    1.0000 </r>
       <r>   -0.5412    1.0000 </r>
       <r>    1.9190    1.0000 </r>
       <r>    2.4182    1.0000 </r>
       <r>    2.9739    1.0000 </r>
       <r>    3.1953    1.0000 </r>
       <r>    3.2102    1.0000 </r>
       <r>    4.0075    1.0000 </r>
       <r>    4.1145    1.0000 </r>
       <r>    4.4309    1.0000 </r>
       <r>    6.6142    0.0000 </r>
       <r>    6.8798    0.0000 </r>
       <r>    7.3422    0.0000 </r>
       <r>    7.7337    0.0000 </r>
       <r>    7.8674    0.0000 </r>
       <r>    8.8102    0.0000 </r>
       <r>    9.0007    0.0000 </r>
       <r>    9.4323    0.0000 </r>
      </set>
      <set comment="kpoint 231">
       <r>   -4.1879    1.0000 </r>
       <r>   -3.7029    1.0000 </r>
       <r>   -2.5726    1.0000 </r>
       <r>   -2.5613    1.0000 </r>
       <r>   -1.4028    1.0000 </r>
       <r>   -1.3288    1.0000 </r>
       <r>   -1.0771    1.0000 </r>
       <r>   -0.0332    1.0000 </r>
       <r>    1.6574    1.0000 </r>
       <r>    2.4557    1.0000 </r>
       <r>    2.8162    1.0000 </r>
       <r>    3.1203    1.0000 </r>
       <r>    3.1785    1.0000 </r>
       <r>    3.4831    1.0000 </r>
       <r>    4.0456    1.0000 </r>
       <r>    4.3378    1.0000 </r>
       <r>    6.9154    0.0000 </r>
       <r>    7.2308    0.0000 </r>
       <r>    7.4232    0.0000 </r>
       <r>    7.9869    0.0000 </r>
       <r>    8.0836    0.0000 </r>
       <r>    9.1538    0.0000 </r>
       <r>    9.4856    0.0000 </r>
       <r>    9.5728    0.0000 </r>
      </set>
      <set comment="kpoint 232">
       <r>   -4.3688    1.0000 </r>
       <r>   -3.5107    1.0000 </r>
       <r>   -2.7991    1.0000 </r>
       <r>   -2.4127    1.0000 </r>
       <r>   -1.4015    1.0000 </r>
       <r>   -1.1175    1.0000 </r>
       <r>   -0.9812    1.0000 </r>
       <r>    0.5266    1.0000 </r>
       <r>    1.5854    1.0000 </r>
       <r>    1.9145    1.0000 </r>
       <r>    2.5890    1.0000 </r>
       <r>    2.6416    1.0000 </r>
       <r>    2.7439    1.0000 </r>
       <r>    3.1991    1.0000 </r>
       <r>    3.9767    1.0000 </r>
       <r>    4.3097    1.0000 </r>
       <r>    6.8799    0.0000 </r>
       <r>    7.8253    0.0000 </r>
       <r>    8.4643    0.0000 </r>
       <r>    8.7938    0.0000 </r>
       <r>    8.8768    0.0000 </r>
       <r>    9.0966    0.0000 </r>
       <r>    9.8762    0.0000 </r>
       <r>   10.4075    0.0000 </r>
      </set>
     </set>
    </set>
   </array>
  </eigenvalues>
  <separator name="orbital magnetization" >
   <v name="MAGDIPOLOUT">      0.00000000      0.00000000      0.00000000</v>
  </separator>
  <dos>
   <i name="efermi">      5.82051017 </i>
   <total>
    <array>
     <dimension dim="1">gridpoints</dimension>
     <dimension dim="2">spin</dimension>
     <field>energy</field>
     <field>total</field>
     <field>integrated</field>
     <set>
      <set comment="spin 1">
       <r>    -7.0071     0.0000     0.0000 </r>
       <r>    -6.9446     0.0000     0.0000 </r>
       <r>    -6.8821     0.0000     0.0000 </r>
       <r>    -6.8196     0.0000     0.0000 </r>
       <r>    -6.7571     0.0000     0.0000 </r>
       <r>    -6.6946     0.0000     0.0000 </r>
       <r>    -6.6321     0.0000     0.0000 </r>
       <r>    -6.5696     0.0000     0.0000 </r>
       <r>    -6.5071     0.0000     0.0000 </r>
       <r>    -6.4446     0.0000     0.0000 </r>
       <r>    -6.3821     0.0000     0.0000 </r>
       <r>    -6.3197     0.0000     0.0000 </r>
       <r>    -6.2572     0.0000     0.0000 </r>
       <r>    -6.1947     0.0000     0.0000 </r>
       <r>    -6.1322     0.0692     0.0043 </r>
       <r>    -6.0697     0.3401     0.0256 </r>
       <r>    -6.0072     0.3836     0.0496 </r>
       <r>    -5.9447     0.7798     0.0983 </r>
       <r>    -5.8822     0.4151     0.1243 </r>
       <r>    -5.8197     0.8309     0.1762 </r>
       <r>    -5.7572     0.9817     0.2376 </r>
       <r>    -5.6947     1.2697     0.3169 </r>
       <r>    -5.6322     0.7511     0.3639 </r>
       <r>    -5.5697     0.7176     0.4088 </r>
       <r>    -5.5072     1.0309     0.4732 </r>
       <r>    -5.4447     1.3298     0.5563 </r>
       <r>    -5.3822     1.5506     0.6533 </r>
       <r>    -5.3197     1.3630     0.7385 </r>
       <r>    -5.2572     1.2544     0.8169 </r>
       <r>    -5.1947     1.3867     0.9035 </r>
       <r>    -5.1322     1.5003     0.9973 </r>
       <r>    -5.0697     1.6317     1.0993 </r>
       <r>    -5.0072     1.2686     1.1787 </r>
       <r>    -4.9447     1.5014     1.2725 </r>
       <r>    -4.8822     1.7969     1.3849 </r>
       <r>    -4.8197     2.1858     1.5215 </r>
       <r>    -4.7572     1.3271     1.6045 </r>
       <r>    -4.6947     2.1347     1.7379 </r>
       <r>    -4.6322     2.1123     1.8700 </r>
       <r>    -4.5697     1.6505     1.9731 </r>
       <r>    -4.5072     2.2197     2.1118 </r>
       <r>    -4.4447     1.6372     2.2142 </r>
       <r>    -4.3822     2.0071     2.3397 </r>
       <r>    -4.3197     2.9935     2.5268 </r>
       <r>    -4.2572     1.9088     2.6461 </r>
       <r>    -4.1947     2.2306     2.7856 </r>
       <r>    -4.1322     2.9802     2.9718 </r>
       <r>    -4.0697     2.1524     3.1064 </r>
       <r>    -4.0072     3.2749     3.3111 </r>
       <r>    -3.9447     2.7451     3.4828 </r>
       <r>    -3.8822     3.6043     3.7081 </r>
       <r>    -3.8197     1.9450     3.8297 </r>
       <r>    -3.7572     3.1334     4.0255 </r>
       <r>    -3.6948     3.8991     4.2692 </r>
       <r>    -3.6323     4.5099     4.5511 </r>
       <r>    -3.5698     3.1031     4.7451 </r>
       <r>    -3.5073     3.5694     4.9682 </r>
       <r>    -3.4448     3.2476     5.1712 </r>
       <r>    -3.3823     2.1215     5.3039 </r>
       <r>    -3.3198     2.3830     5.4528 </r>
       <r>    -3.2573     3.5363     5.6739 </r>
       <r>    -3.1948     2.6379     5.8388 </r>
       <r>    -3.1323     3.2471     6.0417 </r>
       <r>    -3.0698     2.7601     6.2142 </r>
       <r>    -3.0073     2.3122     6.3588 </r>
       <r>    -2.9448     2.3133     6.5034 </r>
       <r>    -2.8823     2.0852     6.6337 </r>
       <r>    -2.8198     2.0124     6.7596 </r>
       <r>    -2.7573     2.5253     6.9174 </r>
       <r>    -2.6948     2.6372     7.0823 </r>
       <r>    -2.6323     2.4605     7.2361 </r>
       <r>    -2.5698     1.4769     7.3284 </r>
       <r>    -2.5073     0.9525     7.3879 </r>
       <r>    -2.4448     1.5841     7.4869 </r>
       <r>    -2.3823     1.9062     7.6061 </r>
       <r>    -2.3198     1.5579     7.7035 </r>
       <r>    -2.2573     0.9597     7.7635 </r>
       <r>    -2.1948     1.4649     7.8550 </r>
       <r>    -2.1323     1.2408     7.9326 </r>
       <r>    -2.0698     0.7089     7.9769 </r>
       <r>    -2.0073     0.2313     7.9913 </r>
       <r>    -1.9448     0.1380     8.0000 </r>
       <r>    -1.8823     0.2777     8.0174 </r>
       <r>    -1.8198     0.6903     8.0605 </r>
       <r>    -1.7573     0.7552     8.1077 </r>
       <r>    -1.6948     0.7709     8.1559 </r>
       <r>    -1.6323     0.5429     8.1898 </r>
       <r>    -1.5698     1.2380     8.2672 </r>
       <r>    -1.5073     1.6670     8.3714 </r>
       <r>    -1.4448     1.3238     8.4542 </r>
       <r>    -1.3823     2.3507     8.6011 </r>
       <r>    -1.3198     1.3367     8.6847 </r>
       <r>    -1.2573     1.5918     8.7842 </r>
       <r>    -1.1948     2.3035     8.9282 </r>
       <r>    -1.1323     3.0254     9.1174 </r>
       <r>    -1.0699     4.3403     9.3887 </r>
       <r>    -1.0074     5.6584     9.7424 </r>
       <r>    -0.9449     7.4639    10.2089 </r>
       <r>    -0.8824     4.3094    10.4783 </r>
       <r>    -0.8199     4.5521    10.7628 </r>
       <r>    -0.7574     3.2002    10.9629 </r>
       <r>    -0.6949     3.8184    11.2015 </r>
       <r>    -0.6324     3.7582    11.4364 </r>
       <r>    -0.5699     3.9207    11.6815 </r>
       <r>    -0.5074     2.0097    11.8072 </r>
       <r>    -0.4449     1.4101    11.8953 </r>
       <r>    -0.3824     2.1999    12.0328 </r>
       <r>    -0.3199     2.4242    12.1844 </r>
       <r>    -0.2574     2.4105    12.3351 </r>
       <r>    -0.1949     2.4140    12.4859 </r>
       <r>    -0.1324     2.2770    12.6283 </r>
       <r>    -0.0699     2.3249    12.7736 </r>
       <r>    -0.0074     1.7652    12.8840 </r>
       <r>     0.0551     1.0145    12.9474 </r>
       <r>     0.1176     2.4779    13.1023 </r>
       <r>     0.1801     2.0375    13.2297 </r>
       <r>     0.2426     1.5040    13.3237 </r>
       <r>     0.3051     1.4101    13.4118 </r>
       <r>     0.3676     1.2478    13.4899 </r>
       <r>     0.4301     1.1411    13.5613 </r>
       <r>     0.4926     2.1571    13.6961 </r>
       <r>     0.5551     1.3844    13.7826 </r>
       <r>     0.6176     1.6179    13.8838 </r>
       <r>     0.6801     0.8567    13.9373 </r>
       <r>     0.7426     0.7122    13.9819 </r>
       <r>     0.8051     0.8141    14.0328 </r>
       <r>     0.8676     1.3486    14.1171 </r>
       <r>     0.9301     1.4118    14.2053 </r>
       <r>     0.9926     1.3697    14.2909 </r>
       <r>     1.0551     1.2967    14.3720 </r>
       <r>     1.1176     1.3052    14.4536 </r>
       <r>     1.1801     0.5826    14.4900 </r>
       <r>     1.2426     0.9665    14.5504 </r>
       <r>     1.3051     0.7630    14.5981 </r>
       <r>     1.3676     1.1006    14.6669 </r>
       <r>     1.4301     1.3351    14.7503 </r>
       <r>     1.4926     2.2837    14.8930 </r>
       <r>     1.5550     2.6345    15.0577 </r>
       <r>     1.6175     5.1137    15.3773 </r>
       <r>     1.6800     4.1991    15.6398 </r>
       <r>     1.7425     4.9937    15.9519 </r>
       <r>     1.8050     4.0616    16.2059 </r>
       <r>     1.8675     4.7002    16.4997 </r>
       <r>     1.9300     4.7053    16.7939 </r>
       <r>     1.9925     4.4595    17.0726 </r>
       <r>     2.0550     2.4197    17.2239 </r>
       <r>     2.1175     4.4756    17.5037 </r>
       <r>     2.1800     6.6099    17.9169 </r>
       <r>     2.2425     4.0789    18.1719 </r>
       <r>     2.3050     3.6852    18.4023 </r>
       <r>     2.3675     4.1264    18.6602 </r>
       <r>     2.4300     3.4412    18.8754 </r>
       <r>     2.4925     2.8250    19.0520 </r>
       <r>     2.5550     3.1858    19.2512 </r>
       <r>     2.6175     6.4500    19.6543 </r>
       <r>     2.6800     5.8659    20.0210 </r>
       <r>     2.7425     5.0025    20.3338 </r>
       <r>     2.8050     4.2695    20.6007 </r>
       <r>     2.8675     5.7995    20.9633 </r>
       <r>     2.9300     4.7930    21.2629 </r>
       <r>     2.9925     6.3926    21.6625 </r>
       <r>     3.0550     6.5459    22.0717 </r>
       <r>     3.1175     6.7010    22.4905 </r>
       <r>     3.1800     6.3605    22.8881 </r>
       <r>     3.2425     5.2834    23.2184 </r>
       <r>     3.3050     5.2986    23.5495 </r>
       <r>     3.3675     5.0198    23.8634 </r>
       <r>     3.4300     4.6280    24.1527 </r>
       <r>     3.4925     5.8039    24.5155 </r>
       <r>     3.5550     7.8460    25.0061 </r>
       <r>     3.6175     5.4827    25.3488 </r>
       <r>     3.6800     4.8041    25.6491 </r>
       <r>     3.7425     4.5074    25.9309 </r>
       <r>     3.8050     4.3055    26.2000 </r>
       <r>     3.8675     5.1268    26.5205 </r>
       <r>     3.9300     5.9869    26.8948 </r>
       <r>     3.9925     5.3116    27.2269 </r>
       <r>     4.0550     6.0375    27.6044 </r>
       <r>     4.1175     5.4654    27.9460 </r>
       <r>     4.1799     5.0586    28.2624 </r>
       <r>     4.2424     4.1435    28.5213 </r>
       <r>     4.3049     3.3597    28.7314 </r>
       <r>     4.3674     5.1668    29.0543 </r>
       <r>     4.4299     4.9724    29.3651 </r>
       <r>     4.4924     3.6656    29.5943 </r>
       <r>     4.5549     4.4493    29.8724 </r>
       <r>     4.6174     4.0755    30.1271 </r>
       <r>     4.6799     3.2095    30.3277 </r>
       <r>     4.7424     4.2750    30.5949 </r>
       <r>     4.8049     2.7102    30.7643 </r>
       <r>     4.8674     1.9608    30.8869 </r>
       <r>     4.9299     2.8210    31.0632 </r>
       <r>     4.9924     1.7769    31.1743 </r>
       <r>     5.0549     1.4934    31.2677 </r>
       <r>     5.1174     2.2683    31.4095 </r>
       <r>     5.1799     1.4782    31.5019 </r>
       <r>     5.2424     1.2255    31.5785 </r>
       <r>     5.3049     1.3682    31.6641 </r>
       <r>     5.3674     1.2478    31.7421 </r>
       <r>     5.4299     0.9964    31.8044 </r>
       <r>     5.4924     0.9034    31.8609 </r>
       <r>     5.5549     0.8986    31.9171 </r>
       <r>     5.6174     0.4273    31.9438 </r>
       <r>     5.6799     0.6882    31.9868 </r>
       <r>     5.7424     0.0481    31.9899 </r>
       <r>     5.8049     0.1623    32.0000 </r>
       <r>     5.8674     0.0000    32.0000 </r>
       <r>     5.9299     0.0000    32.0000 </r>
       <r>     5.9924     0.0000    32.0000 </r>
       <r>     6.0549     0.0000    32.0000 </r>
       <r>     6.1174     0.0000    32.0000 </r>
       <r>     6.1799     0.0000    32.0000 </r>
       <r>     6.2424     0.0000    32.0000 </r>
       <r>     6.3049     0.0000    32.0000 </r>
       <r>     6.3674     0.1385    32.0087 </r>
       <r>     6.4299     0.1640    32.0189 </r>
       <r>     6.4924     0.6520    32.0597 </r>
       <r>     6.5549     1.1349    32.1306 </r>
       <r>     6.6174     1.0691    32.1975 </r>
       <r>     6.6799     1.1827    32.2714 </r>
       <r>     6.7424     0.7535    32.3185 </r>
       <r>     6.8048     1.8749    32.4357 </r>
       <r>     6.8673     1.2422    32.5133 </r>
       <r>     6.9298     1.7130    32.6204 </r>
       <r>     6.9923     2.3316    32.7661 </r>
       <r>     7.0548     2.3885    32.9154 </r>
       <r>     7.1173     1.4668    33.0071 </r>
       <r>     7.1798     1.7212    33.1147 </r>
       <r>     7.2423     4.0080    33.3652 </r>
       <r>     7.3048     2.5824    33.5267 </r>
       <r>     7.3673     3.5135    33.7463 </r>
       <r>     7.4298     2.8595    33.9251 </r>
       <r>     7.4923     2.5096    34.0819 </r>
       <r>     7.5548     3.5326    34.3027 </r>
       <r>     7.6173     3.7832    34.5392 </r>
       <r>     7.6798     4.6971    34.8328 </r>
       <r>     7.7423     5.2282    35.1596 </r>
       <r>     7.8048     4.4227    35.4362 </r>
       <r>     7.8673     4.6638    35.7277 </r>
       <r>     7.9298     7.7570    36.2126 </r>
       <r>     7.9923     5.0304    36.5270 </r>
       <r>     8.0548     5.7601    36.8870 </r>
       <r>     8.1173     6.1286    37.2702 </r>
       <r>     8.1798     6.0961    37.6513 </r>
       <r>     8.2423     6.0861    38.0318 </r>
       <r>     8.3048     5.2921    38.3626 </r>
       <r>     8.3673     5.3995    38.7001 </r>
       <r>     8.4298     6.1970    39.0875 </r>
       <r>     8.4923     5.4056    39.4254 </r>
       <r>     8.5548     3.6990    39.6566 </r>
       <r>     8.6173     4.4665    39.9358 </r>
       <r>     8.6798     4.8718    40.2403 </r>
       <r>     8.7423     4.4388    40.5178 </r>
       <r>     8.8048     4.8518    40.8210 </r>
       <r>     8.8673     4.0259    41.0728 </r>
       <r>     8.9298     5.0453    41.3881 </r>
       <r>     8.9923     6.7528    41.8102 </r>
       <r>     9.0548     9.5843    42.4092 </r>
       <r>     9.1173     8.0507    42.9126 </r>
       <r>     9.1798     7.7898    43.3995 </r>
       <r>     9.2423     7.6713    43.8790 </r>
       <r>     9.3048     5.8970    44.2477 </r>
       <r>     9.3672     5.6343    44.5999 </r>
       <r>     9.4297     5.1359    44.9210 </r>
       <r>     9.4922     4.1759    45.1820 </r>
       <r>     9.5547     5.0625    45.4986 </r>
       <r>     9.6172     5.3366    45.8323 </r>
       <r>     9.6797     6.0340    46.2094 </r>
       <r>     9.7422     4.4343    46.4866 </r>
       <r>     9.8047     2.6808    46.6542 </r>
       <r>     9.8672     2.9659    46.8396 </r>
       <r>     9.9297     2.9870    47.0263 </r>
       <r>     9.9922     1.8377    47.1412 </r>
       <r>    10.0547     1.8669    47.2579 </r>
       <r>    10.1172     1.8467    47.3734 </r>
       <r>    10.1797     1.7696    47.4839 </r>
       <r>    10.2422     1.2260    47.5606 </r>
       <r>    10.3047     1.5065    47.6548 </r>
       <r>    10.3672     0.7434    47.7012 </r>
       <r>    10.4297     1.7831    47.8127 </r>
       <r>    10.4922     1.2232    47.8892 </r>
       <r>    10.5547     0.5476    47.9234 </r>
       <r>    10.6172     0.3617    47.9460 </r>
       <r>    10.6797     0.0324    47.9481 </r>
       <r>    10.7422     0.2749    47.9652 </r>
       <r>    10.8047     0.0022    47.9654 </r>
       <r>    10.8672     0.4001    47.9904 </r>
       <r>    10.9297     0.1540    48.0000 </r>
       <r>    10.9922     0.0000    48.0000 </r>
       <r>    11.0547     0.0000    48.0000 </r>
       <r>    11.1172     0.0000    48.0000 </r>
       <r>    11.1797     0.0000    48.0000 </r>
       <r>    11.2422     0.0000    48.0000 </r>
       <r>    11.3047     0.0000    48.0000 </r>
       <r>    11.3672     0.0000    48.0000 </r>
       <r>    11.4297     0.0000    48.0000 </r>
       <r>    11.4922     0.0000    48.0000 </r>
       <r>    11.5547     0.0000    48.0000 </r>
       <r>    11.6172     0.0000    48.0000 </r>
       <r>    11.6797     0.0000    48.0000 </r>
       <r>    11.7422     0.0000    48.0000 </r>
      </set>
     </set>
    </array>
   </total>
  </dos>
 </calculation>
 <structure name="finalpos" >
  <crystal>
   <varray name="basis" >
    <v>      -2.72185119       2.72185119       5.44370237 </v>
    <v>       2.72185119      -5.44370237       2.72185119 </v>
    <v>       2.72185119       2.72185119       0.00000000 </v>
   </varray>
   <i name="volume">    161.31810740 </i>
   <varray name="rec_basis" >
    <v>      -0.04592463       0.04592463       0.13777388 </v>
    <v>       0.09184925      -0.09184925       0.09184925 </v>
    <v>       0.22962313       0.13777388       0.04592463 </v>
   </varray>
  </crystal>
  <varray name="positions" >
   <v>       0.99850011       0.00000000       0.00000000 </v>
   <v>       0.50000000       0.00000000       0.50000000 </v>
   <v>       0.25000000       0.50000000       0.75000000 </v>
   <v>       0.75000000       0.50000000       0.25000000 </v>
   <v>       0.18750000       0.12500000       0.56250000 </v>
   <v>       0.68750000       0.12500000       0.06250000 </v>
   <v>       0.43750000       0.62500000       0.31250000 </v>
   <v>       0.93750000       0.62500000       0.81250000 </v>
  </varray>
 </structure>
</modeling>
