<?xml version="1.0" encoding="ISO-8859-1"?>
<modeling>
 <generator>
  <i name="program" type="string">vasp </i>
  <i name="version" type="string">6.4.3  </i>
  <i name="subversion" type="string">19Mar24 (build Jun 20 2024 15:56:09) complex                          parallel </i>
  <i name="platform" type="string">LinuxNV_CrayMPICH </i>
  <i name="date" type="string">2025 01 07 </i>
  <i name="time" type="string">18:37:41 </i>
 </generator>
 <incar>
  <i type="string" name="PREC">Accurate</i>
  <i type="int" name="IBRION">    -1</i>
  <i name="EDIFF">      0.00000001</i>
  <i type="int" name="NSW">     0</i>
  <i name="ENCUT">    500.00000000</i>
  <i type="logical" name="LREAL"> F  </i>
  <i type="int" name="ISMEAR">     0</i>
  <i name="SIGMA">      0.01000000</i>
  <i type="logical" name="LWAVE"> F  </i>
  <i type="logical" name="LCHARG"> F  </i>
 </incar>
 <primitive_cell>
  <structure name="primitive_cell" >
   <crystal>
    <varray name="basis" >
     <v>       8.28739668       8.28739668       0.00000000 </v>
     <v>      -4.14369834       4.14369834      -0.00000000 </v>
     <v>       0.00000000       0.00000000       4.14369834 </v>
    </varray>
    <i name="volume">    284.59311253 </i>
    <varray name="rec_basis" >
     <v>       0.06033258       0.06033258      -0.00000000 </v>
     <v>      -0.12066515       0.12066515       0.00000000 </v>
     <v>      -0.00000000      -0.00000000       0.24133031 </v>
    </varray>
   </crystal>
   <varray name="positions" >
    <v>       0.00000000       0.00000000       0.00000000 </v>
    <v>       0.25000000       0.50000000       0.00000000 </v>
    <v>       0.50000000       0.00000000       1.00000000 </v>
    <v>       0.75000000       0.50000000       1.00000000 </v>
    <v>       0.25072764       0.00072764       0.50072764 </v>
    <v>       0.50000000       0.50000000       0.50000000 </v>
    <v>       0.75000000       0.00000000       0.50000000 </v>
    <v>       0.00000000       0.50000000       0.50000000 </v>
   </varray>
  </structure>
  <varray name="primitive_index" >
   <v type="int" >        1 </v>
   <v type="int" >        2 </v>
   <v type="int" >        3 </v>
   <v type="int" >        4 </v>
   <v type="int" >        5 </v>
   <v type="int" >        6 </v>
   <v type="int" >        7 </v>
   <v type="int" >        8 </v>
  </varray>
 </primitive_cell>
 <kpoints>
  <generation param="Gamma">
   <v type="int" name="divisions">       4        7       10 </v>
   <v name="usershift">      0.00000000       0.00000000       0.00000000 </v>
   <v name="genvec1">      0.25000000       0.00000000       0.00000000 </v>
   <v name="genvec2">     -0.00000000       0.14285714       0.00000000 </v>
   <v name="genvec3">     -0.00000000       0.00000000       0.10000000 </v>
   <v name="shift">      0.00000000       0.00000000       0.00000000 </v>
  </generation>
  <varray name="kpointlist" >
   <v>       0.00000000       0.00000000       0.00000000 </v>
   <v>       0.25000000       0.00000000       0.00000000 </v>
   <v>       0.50000000       0.00000000       0.00000000 </v>
   <v>       0.00000000       0.14285714       0.00000000 </v>
   <v>       0.25000000       0.14285714       0.00000000 </v>
   <v>      -0.25000000       0.14285714       0.00000000 </v>
   <v>       0.50000000       0.14285714       0.00000000 </v>
   <v>       0.00000000       0.28571429       0.00000000 </v>
   <v>       0.25000000       0.28571429       0.00000000 </v>
   <v>      -0.25000000       0.28571429       0.00000000 </v>
   <v>       0.50000000       0.28571429       0.00000000 </v>
   <v>       0.00000000       0.42857143       0.00000000 </v>
   <v>       0.25000000       0.42857143       0.00000000 </v>
   <v>      -0.25000000       0.42857143       0.00000000 </v>
   <v>       0.50000000       0.42857143       0.00000000 </v>
   <v>       0.00000000       0.00000000       0.10000000 </v>
   <v>       0.25000000       0.00000000       0.10000000 </v>
   <v>      -0.25000000       0.00000000       0.10000000 </v>
   <v>       0.50000000       0.00000000       0.10000000 </v>
   <v>       0.00000000       0.14285714       0.10000000 </v>
   <v>       0.00000000      -0.14285714       0.10000000 </v>
   <v>       0.25000000       0.14285714       0.10000000 </v>
   <v>      -0.25000000      -0.14285714       0.10000000 </v>
   <v>      -0.25000000       0.14285714      -0.10000000 </v>
   <v>       0.25000000      -0.14285714      -0.10000000 </v>
   <v>       0.50000000       0.14285714       0.10000000 </v>
   <v>       0.50000000      -0.14285714       0.10000000 </v>
   <v>       0.00000000       0.28571429       0.10000000 </v>
   <v>       0.00000000      -0.28571429       0.10000000 </v>
   <v>       0.25000000       0.28571429       0.10000000 </v>
   <v>      -0.25000000      -0.28571429       0.10000000 </v>
   <v>      -0.25000000       0.28571429      -0.10000000 </v>
   <v>       0.25000000      -0.28571429      -0.10000000 </v>
   <v>       0.50000000       0.28571429       0.10000000 </v>
   <v>       0.50000000      -0.28571429       0.10000000 </v>
   <v>       0.00000000       0.42857143       0.10000000 </v>
   <v>       0.00000000      -0.42857143       0.10000000 </v>
   <v>       0.25000000       0.42857143       0.10000000 </v>
   <v>      -0.25000000      -0.42857143       0.10000000 </v>
   <v>      -0.25000000       0.42857143      -0.10000000 </v>
   <v>       0.25000000      -0.42857143      -0.10000000 </v>
   <v>       0.50000000       0.42857143       0.10000000 </v>
   <v>       0.50000000      -0.42857143       0.10000000 </v>
   <v>       0.00000000       0.00000000       0.20000000 </v>
   <v>       0.25000000       0.00000000       0.20000000 </v>
   <v>      -0.25000000       0.00000000       0.20000000 </v>
   <v>       0.50000000       0.00000000       0.20000000 </v>
   <v>       0.00000000       0.14285714       0.20000000 </v>
   <v>       0.00000000      -0.14285714       0.20000000 </v>
   <v>       0.25000000       0.14285714       0.20000000 </v>
   <v>      -0.25000000      -0.14285714       0.20000000 </v>
   <v>      -0.25000000       0.14285714      -0.20000000 </v>
   <v>       0.25000000      -0.14285714      -0.20000000 </v>
   <v>       0.50000000       0.14285714       0.20000000 </v>
   <v>       0.50000000      -0.14285714       0.20000000 </v>
   <v>       0.00000000       0.28571429       0.20000000 </v>
   <v>       0.00000000      -0.28571429       0.20000000 </v>
   <v>       0.25000000       0.28571429       0.20000000 </v>
   <v>      -0.25000000      -0.28571429       0.20000000 </v>
   <v>      -0.25000000       0.28571429      -0.20000000 </v>
   <v>       0.25000000      -0.28571429      -0.20000000 </v>
   <v>       0.50000000       0.28571429       0.20000000 </v>
   <v>       0.50000000      -0.28571429       0.20000000 </v>
   <v>       0.00000000       0.42857143       0.20000000 </v>
   <v>       0.00000000      -0.42857143       0.20000000 </v>
   <v>       0.25000000       0.42857143       0.20000000 </v>
   <v>      -0.25000000      -0.42857143       0.20000000 </v>
   <v>      -0.25000000       0.42857143      -0.20000000 </v>
   <v>       0.25000000      -0.42857143      -0.20000000 </v>
   <v>       0.50000000       0.42857143       0.20000000 </v>
   <v>       0.50000000      -0.42857143       0.20000000 </v>
   <v>       0.00000000       0.00000000       0.30000000 </v>
   <v>       0.25000000       0.00000000       0.30000000 </v>
   <v>      -0.25000000       0.00000000       0.30000000 </v>
   <v>       0.50000000       0.00000000       0.30000000 </v>
   <v>       0.00000000       0.14285714       0.30000000 </v>
   <v>       0.00000000      -0.14285714       0.30000000 </v>
   <v>       0.25000000       0.14285714       0.30000000 </v>
   <v>      -0.25000000      -0.14285714       0.30000000 </v>
   <v>      -0.25000000       0.14285714      -0.30000000 </v>
   <v>       0.25000000      -0.14285714      -0.30000000 </v>
   <v>       0.50000000       0.14285714       0.30000000 </v>
   <v>       0.50000000      -0.14285714       0.30000000 </v>
   <v>       0.00000000       0.28571429       0.30000000 </v>
   <v>       0.00000000      -0.28571429       0.30000000 </v>
   <v>       0.25000000       0.28571429       0.30000000 </v>
   <v>      -0.25000000      -0.28571429       0.30000000 </v>
   <v>      -0.25000000       0.28571429      -0.30000000 </v>
   <v>       0.25000000      -0.28571429      -0.30000000 </v>
   <v>       0.50000000       0.28571429       0.30000000 </v>
   <v>       0.50000000      -0.28571429       0.30000000 </v>
   <v>       0.00000000       0.42857143       0.30000000 </v>
   <v>       0.00000000      -0.42857143       0.30000000 </v>
   <v>       0.25000000       0.42857143       0.30000000 </v>
   <v>      -0.25000000      -0.42857143       0.30000000 </v>
   <v>      -0.25000000       0.42857143      -0.30000000 </v>
   <v>       0.25000000      -0.42857143      -0.30000000 </v>
   <v>       0.50000000       0.42857143       0.30000000 </v>
   <v>       0.50000000      -0.42857143       0.30000000 </v>
   <v>       0.00000000       0.00000000       0.40000000 </v>
   <v>       0.25000000       0.00000000       0.40000000 </v>
   <v>      -0.25000000       0.00000000       0.40000000 </v>
   <v>       0.50000000       0.00000000       0.40000000 </v>
   <v>       0.00000000       0.14285714       0.40000000 </v>
   <v>       0.00000000      -0.14285714       0.40000000 </v>
   <v>       0.25000000       0.14285714       0.40000000 </v>
   <v>      -0.25000000      -0.14285714       0.40000000 </v>
   <v>      -0.25000000       0.14285714      -0.40000000 </v>
   <v>       0.25000000      -0.14285714      -0.40000000 </v>
   <v>       0.50000000       0.14285714       0.40000000 </v>
   <v>       0.50000000      -0.14285714       0.40000000 </v>
   <v>       0.00000000       0.28571429       0.40000000 </v>
   <v>       0.00000000      -0.28571429       0.40000000 </v>
   <v>       0.25000000       0.28571429       0.40000000 </v>
   <v>      -0.25000000      -0.28571429       0.40000000 </v>
   <v>      -0.25000000       0.28571429      -0.40000000 </v>
   <v>       0.25000000      -0.28571429      -0.40000000 </v>
   <v>       0.50000000       0.28571429       0.40000000 </v>
   <v>       0.50000000      -0.28571429       0.40000000 </v>
   <v>       0.00000000       0.42857143       0.40000000 </v>
   <v>       0.00000000      -0.42857143       0.40000000 </v>
   <v>       0.25000000       0.42857143       0.40000000 </v>
   <v>      -0.25000000      -0.42857143       0.40000000 </v>
   <v>      -0.25000000       0.42857143      -0.40000000 </v>
   <v>       0.25000000      -0.42857143      -0.40000000 </v>
   <v>       0.50000000       0.42857143       0.40000000 </v>
   <v>       0.50000000      -0.42857143       0.40000000 </v>
   <v>       0.00000000       0.00000000       0.50000000 </v>
   <v>       0.25000000       0.00000000       0.50000000 </v>
   <v>       0.50000000       0.00000000       0.50000000 </v>
   <v>       0.00000000       0.14285714       0.50000000 </v>
   <v>       0.25000000       0.14285714       0.50000000 </v>
   <v>      -0.25000000       0.14285714       0.50000000 </v>
   <v>       0.50000000       0.14285714       0.50000000 </v>
   <v>       0.00000000       0.28571429       0.50000000 </v>
   <v>       0.25000000       0.28571429       0.50000000 </v>
   <v>      -0.25000000       0.28571429       0.50000000 </v>
   <v>       0.50000000       0.28571429       0.50000000 </v>
   <v>       0.00000000       0.42857143       0.50000000 </v>
   <v>       0.25000000       0.42857143       0.50000000 </v>
   <v>      -0.25000000       0.42857143       0.50000000 </v>
   <v>       0.50000000       0.42857143       0.50000000 </v>
  </varray>
  <varray name="weights" >
   <v>       0.00357143 </v>
   <v>       0.00714286 </v>
   <v>       0.00357143 </v>
   <v>       0.00714286 </v>
   <v>       0.00714286 </v>
   <v>       0.00714286 </v>
   <v>       0.00714286 </v>
   <v>       0.00714286 </v>
   <v>       0.00714286 </v>
   <v>       0.00714286 </v>
   <v>       0.00714286 </v>
   <v>       0.00714286 </v>
   <v>       0.00714286 </v>
   <v>       0.00714286 </v>
   <v>       0.00714286 </v>
   <v>       0.00714286 </v>
   <v>       0.00714286 </v>
   <v>       0.00714286 </v>
   <v>       0.00714286 </v>
   <v>       0.00714286 </v>
   <v>       0.00714286 </v>
   <v>       0.00714286 </v>
   <v>       0.00714286 </v>
   <v>       0.00714286 </v>
   <v>       0.00714286 </v>
   <v>       0.00714286 </v>
   <v>       0.00714286 </v>
   <v>       0.00714286 </v>
   <v>       0.00714286 </v>
   <v>       0.00714286 </v>
   <v>       0.00714286 </v>
   <v>       0.00714286 </v>
   <v>       0.00714286 </v>
   <v>       0.00714286 </v>
   <v>       0.00714286 </v>
   <v>       0.00714286 </v>
   <v>       0.00714286 </v>
   <v>       0.00714286 </v>
   <v>       0.00714286 </v>
   <v>       0.00714286 </v>
   <v>       0.00714286 </v>
   <v>       0.00714286 </v>
   <v>       0.00714286 </v>
   <v>       0.00714286 </v>
   <v>       0.00714286 </v>
   <v>       0.00714286 </v>
   <v>       0.00714286 </v>
   <v>       0.00714286 </v>
   <v>       0.00714286 </v>
   <v>       0.00714286 </v>
   <v>       0.00714286 </v>
   <v>       0.00714286 </v>
   <v>       0.00714286 </v>
   <v>       0.00714286 </v>
   <v>       0.00714286 </v>
   <v>       0.00714286 </v>
   <v>       0.00714286 </v>
   <v>       0.00714286 </v>
   <v>       0.00714286 </v>
   <v>       0.00714286 </v>
   <v>       0.00714286 </v>
   <v>       0.00714286 </v>
   <v>       0.00714286 </v>
   <v>       0.00714286 </v>
   <v>       0.00714286 </v>
   <v>       0.00714286 </v>
   <v>       0.00714286 </v>
   <v>       0.00714286 </v>
   <v>       0.00714286 </v>
   <v>       0.00714286 </v>
   <v>       0.00714286 </v>
   <v>       0.00714286 </v>
   <v>       0.00714286 </v>
   <v>       0.00714286 </v>
   <v>       0.00714286 </v>
   <v>       0.00714286 </v>
   <v>       0.00714286 </v>
   <v>       0.00714286 </v>
   <v>       0.00714286 </v>
   <v>       0.00714286 </v>
   <v>       0.00714286 </v>
   <v>       0.00714286 </v>
   <v>       0.00714286 </v>
   <v>       0.00714286 </v>
   <v>       0.00714286 </v>
   <v>       0.00714286 </v>
   <v>       0.00714286 </v>
   <v>       0.00714286 </v>
   <v>       0.00714286 </v>
   <v>       0.00714286 </v>
   <v>       0.00714286 </v>
   <v>       0.00714286 </v>
   <v>       0.00714286 </v>
   <v>       0.00714286 </v>
   <v>       0.00714286 </v>
   <v>       0.00714286 </v>
   <v>       0.00714286 </v>
   <v>       0.00714286 </v>
   <v>       0.00714286 </v>
   <v>       0.00714286 </v>
   <v>       0.00714286 </v>
   <v>       0.00714286 </v>
   <v>       0.00714286 </v>
   <v>       0.00714286 </v>
   <v>       0.00714286 </v>
   <v>       0.00714286 </v>
   <v>       0.00714286 </v>
   <v>       0.00714286 </v>
   <v>       0.00714286 </v>
   <v>       0.00714286 </v>
   <v>       0.00714286 </v>
   <v>       0.00714286 </v>
   <v>       0.00714286 </v>
   <v>       0.00714286 </v>
   <v>       0.00714286 </v>
   <v>       0.00714286 </v>
   <v>       0.00714286 </v>
   <v>       0.00714286 </v>
   <v>       0.00714286 </v>
   <v>       0.00714286 </v>
   <v>       0.00714286 </v>
   <v>       0.00714286 </v>
   <v>       0.00714286 </v>
   <v>       0.00714286 </v>
   <v>       0.00714286 </v>
   <v>       0.00714286 </v>
   <v>       0.00714286 </v>
   <v>       0.00357143 </v>
   <v>       0.00714286 </v>
   <v>       0.00357143 </v>
   <v>       0.00714286 </v>
   <v>       0.00714286 </v>
   <v>       0.00714286 </v>
   <v>       0.00714286 </v>
   <v>       0.00714286 </v>
   <v>       0.00714286 </v>
   <v>       0.00714286 </v>
   <v>       0.00714286 </v>
   <v>       0.00714286 </v>
   <v>       0.00714286 </v>
   <v>       0.00714286 </v>
   <v>       0.00714286 </v>
  </varray>
 </kpoints>
 <parameters>
  <separator name="general" >
   <i type="string" name="SYSTEM">unknown system</i>
   <i type="logical" name="LCOMPAT"> F  </i>
  </separator>
  <separator name="electronic" >
   <i type="string" name="PREC">accura</i>
   <i name="ENMAX">    500.00000000</i>
   <i name="ENAUG">    407.93300000</i>
   <i name="EDIFF">      0.00000001</i>
   <i type="int" name="IALGO">    38</i>
   <i type="int" name="IWAVPR">    10</i>
   <i type="int" name="NBANDS">    40</i>
   <i type="int" name="NBANDSLOW">    -1</i>
   <i type="int" name="NBANDSHIGH">    -1</i>
   <i name="NELECT">     64.00000000</i>
   <i type="int" name="TURBO">     0</i>
   <i type="int" name="IRESTART">     0</i>
   <i type="int" name="NREBOOT">     0</i>
   <i type="int" name="NMIN">     0</i>
   <i name="EREF">      0.00000000</i>
   <separator name="electronic smearing" >
    <i type="int" name="ISMEAR">     0</i>
    <i name="SIGMA">      0.01000000</i>
    <i name="KSPACING">      0.50000000</i>
    <i type="logical" name="KGAMMA"> T  </i>
    <i type="logical" name="KBLOWUP"> T  </i>
   </separator>
   <separator name="electronic projectors" >
    <i type="logical" name="LREAL"> F  </i>
    <v name="ROPT">      0.00000000      0.00000000</v>
    <i type="int" name="LMAXPAW">  -100</i>
    <i type="int" name="LMAXMIX">     2</i>
    <i type="logical" name="NLSPLINE"> F  </i>
   </separator>
   <separator name="electronic startup" >
    <i type="int" name="ISTART">     0</i>
    <i type="int" name="ICHARG">     2</i>
    <i type="int" name="INIWAV">     1</i>
   </separator>
   <separator name="electronic spin" >
    <i type="int" name="ISPIN">     1</i>
    <i type="logical" name="LNONCOLLINEAR"> F  </i>
    <v name="MAGMOM">      1.00000000      1.00000000      1.00000000      1.00000000      1.00000000      1.00000000      1.00000000      1.00000000</v>
    <i name="NUPDOWN">     -1.00000000</i>
    <i type="logical" name="LSORBIT"> F  </i>
    <v name="SAXIS">      0.00000000      0.00000000      1.00000000</v>
    <i type="logical" name="LSPIRAL"> F  </i>
    <v name="QSPIRAL">      0.00000000      0.00000000      0.00000000</v>
    <i type="logical" name="LZEROZ"> F  </i>
   </separator>
   <separator name="electronic exchange-correlation" >
    <i type="logical" name="LASPH"> F  </i>
   </separator>
   <separator name="electronic convergence" >
    <i type="int" name="NELM">    60</i>
    <i type="int" name="NELMDL">    -5</i>
    <i type="int" name="NELMIN">     2</i>
    <i name="ENINI">    500.00000000</i>
    <separator name="electronic convergence detail" >
     <i type="logical" name="LDIAG"> T  </i>
     <i type="logical" name="LSUBROT"> F  </i>
     <i name="WEIMIN">      0.00000000</i>
     <i name="EBREAK">      0.00000000</i>
     <i name="DEPER">      0.30000000</i>
     <i type="int" name="NRMM">     4</i>
     <i name="TIME">      0.40000000</i>
    </separator>
   </separator>
   <separator name="electronic mixer" >
    <i name="AMIX">      0.40000000</i>
    <i name="BMIX">      1.00000000</i>
    <i name="AMIN">      0.10000000</i>
    <i name="AMIX_MAG">      1.60000000</i>
    <i name="BMIX_MAG">      1.00000000</i>
    <separator name="electronic mixer details" >
     <i type="int" name="IMIX">     4</i>
     <i type="logical" name="MIXFIRST"> F  </i>
     <i type="int" name="MAXMIX">   -45</i>
     <i name="WC">    100.00000000</i>
     <i type="int" name="INIMIX">     1</i>
     <i type="int" name="MIXPRE">     1</i>
     <i type="int" name="MREMOVE">     5</i>
    </separator>
   </separator>
   <separator name="electronic dipolcorrection" >
    <i type="logical" name="LDIPOL"> F  </i>
    <i type="logical" name="LMONO"> F  </i>
    <i type="int" name="IDIPOL">     0</i>
    <i name="EPSILON">      1.00000000</i>
    <v name="DIPOL">   -100.00000000   -100.00000000   -100.00000000</v>
    <i name="EFIELD">      0.00000000</i>
    <i type="logical" name="LVACPOTAV"> F  </i>
   </separator>
  </separator>
  <separator name="grids" >
   <i type="int" name="NGX">    90</i>
   <i type="int" name="NGY">    48</i>
   <i type="int" name="NGZ">    30</i>
   <i type="int" name="NGXF">   180</i>
   <i type="int" name="NGYF">    96</i>
   <i type="int" name="NGZF">    60</i>
   <i type="logical" name="ADDGRID"> F  </i>
  </separator>
  <separator name="ionic" >
   <i type="int" name="NSW">     0</i>
   <i type="int" name="IBRION">    -1</i>
   <i type="int" name="MDALGO">     0</i>
   <i type="int" name="ISIF">     2</i>
   <i name="PSTRESS">      0.00000000</i>
   <i name="EDIFFG">      0.00000010</i>
   <i type="int" name="NFREE">     0</i>
   <i name="POTIM">      0.50000000</i>
   <i name="SMASS">     -3.00000000</i>
   <i name="SCALEE">      1.00000000</i>
  </separator>
  <separator name="ionic md" >
   <i name="TEBEG">      0.00010000</i>
   <i name="TEEND">      0.00010000</i>
   <i type="int" name="NBLOCK">     1</i>
   <i type="int" name="KBLOCK">     1</i>
   <i type="int" name="NPACO">   256</i>
   <i name="APACO">     10.00000000</i>
  </separator>
  <separator name="symmetry" >
   <i type="int" name="ISYM">     2</i>
   <i name="SYMPREC">      0.00001000</i>
  </separator>
  <separator name="dos" >
   <i type="int" name="LORBIT">     0</i>
   <v name="RWIGS">     -1.00000000     -1.00000000</v>
   <i type="int" name="NEDOS">   301</i>
   <i name="EMIN">     10.00000000</i>
   <i name="EMAX">    -10.00000000</i>
   <i name="EFERMI">      0.00000000</i>
  </separator>
  <separator name="writing" >
   <i type="int" name="NWRITE">     2</i>
   <i type="logical" name="LWAVE"> F  </i>
   <i type="logical" name="LDOWNSAMPLE"> F  </i>
   <i type="logical" name="LCHARG"> F  </i>
   <i type="logical" name="LPARD"> F  </i>
   <i type="logical" name="LVTOT"> F  </i>
   <i type="logical" name="LVHAR"> F  </i>
   <i type="logical" name="LELF"> F  </i>
   <i type="logical" name="LOPTICS"> F  </i>
   <v name="STM">      0.00000000      0.00000000      0.00000000      0.00000000      0.00000000      0.00000000      0.00000000</v>
  </separator>
  <separator name="performance" >
   <i type="int" name="NPAR">     8</i>
   <i type="int" name="NSIM">     4</i>
   <i type="int" name="NBLK">    -1</i>
   <i type="logical" name="LPLANE"> T  </i>
   <i type="logical" name="LSCALAPACK"> T  </i>
   <i type="logical" name="LSCAAWARE"> F  </i>
   <i type="logical" name="LSCALU"> F  </i>
   <i type="logical" name="LASYNC"> F  </i>
   <i type="logical" name="LORBITALREAL"> F  </i>
  </separator>
  <separator name="miscellaneous" >
   <i type="int" name="IDIOT">     3</i>
   <i type="int" name="PHON_NSTRUCT">    -1</i>
   <i type="logical" name="LMUSIC"> F  </i>
   <v name="POMASS">    132.90000000     35.45300000</v>
   <v name="DARWINR">      0.00000000      0.00000000</v>
   <v name="DARWINV">      1.00000000      1.00000000</v>
   <i type="logical" name="LCORR"> T  </i>
  </separator>
  <i type="logical" name="GGA_COMPAT"> T  </i>
  <i type="logical" name="LBERRY"> F  </i>
  <i type="int" name="ICORELEVEL">     0</i>
  <i type="logical" name="LDAU"> F  </i>
  <i type="int" name="I_CONSTRAINED_M">     0</i>
  <separator name="electronic exchange-correlation" >
   <i type="string" name="GGA    ">PE</i>
   <i type="string" name="XC_C">1</i>
   <i type="int" name="VOSKOWN">     0</i>
   <i type="logical" name="LHFCALC"> F  </i>
   <i type="string" name="PRECFOCK"></i>
   <i type="logical" name="LSYMGRAD"> F  </i>
   <i type="logical" name="LHFONE"> F  </i>
   <i type="logical" name="LRHFCALC"> F  </i>
   <i type="logical" name="LTHOMAS"> F  </i>
   <i type="logical" name="LMODELHF"> F  </i>
   <i type="logical" name="LFOCKACE"> F  </i>
   <i name="ENCUT4O">     -1.00000000</i>
   <i type="int" name="EXXOEP">     0</i>
   <i type="int" name="FOURORBIT">     0</i>
   <i name="AEXX">      0.00000000</i>
   <i name="HFALPHA">      0.00000000</i>
   <i name="MCALPHA">      0.00000000</i>
   <i name="ALDAX">      1.00000000</i>
   <i name="AGGAX">      1.00000000</i>
   <i name="AMGGAX">      1.00000000</i>
   <i name="ALDAC">      1.00000000</i>
   <i name="AGGAC">      1.00000000</i>
   <i name="AMGGAC">      1.00000000</i>
   <i type="int" name="NKREDX">     1</i>
   <i type="int" name="NKREDY">     1</i>
   <i type="int" name="NKREDZ">     1</i>
   <i type="logical" name="SHIFTRED"> F  </i>
   <i type="logical" name="ODDONLY"> F  </i>
   <i type="logical" name="EVENONLY"> F  </i>
   <i type="int" name="LMAXFOCK">     0</i>
   <i type="int" name="NMAXFOCKAE">     0</i>
   <i type="logical" name="LFOCKAEDFT"> F  </i>
   <i name="HFSCREEN">      0.00000000</i>
   <i name="HFSCREENC">      0.00000000</i>
   <i type="int" name="NBANDSGWLOW">     0</i>
  </separator>
  <separator name="vdW DFT" >
   <i type="logical" name="LUSE_VDW"> F  </i>
   <i type="int" name="IVDW_NL">    -1</i>
   <i type="logical" name="LSPIN_VDW"> F  </i>
   <i name="ZAB_VDW">     -0.84910000</i>
   <i name="GAMMA_VDW">      1.39626340</i>
   <i name="ALPHA_VDW">      0.00000000</i>
   <i name="PARAM1">      0.12340000</i>
   <i name="PARAM2">      1.00000000</i>
   <i name="BPARAM">      6.30000000</i>
   <i name="CPARAM">      0.00930000</i>
  </separator>
  <separator name="model GW" >
   <i type="int" name="MODEL_GW">     0</i>
   <i name="MODEL_EPS0">     21.34448344</i>
   <i name="MODEL_ALPHA">      1.00000000</i>
  </separator>
  <separator name="linear response parameters" >
   <i type="logical" name="LEPSILON"> F  </i>
   <i type="logical" name="LRPA"> F  </i>
   <i type="logical" name="LNABLA"> F  </i>
   <i type="logical" name="LVEL"> F  </i>
   <i name="CSHIFT">      0.10000000</i>
   <i name="OMEGAMAX">     -1.00000000</i>
   <i name="DEG_THRESHOLD">      0.00200000</i>
   <i name="RTIME">     -0.10000000</i>
   <i name="WPLASMAI">      0.00000000</i>
   <v name="DFIELD">      0.00000000      0.00000000      0.00000000</v>
   <v name="WPLASMA">      0.00000000      0.00000000      0.00000000      0.00000000      0.00000000      0.00000000      0.00000000      0.00000000      0.00000000</v>
  </separator>
  <separator name="orbital magnetization" >
   <i type="logical" name="NUCIND"> F  </i>
   <v name="MAGPOS">      0.00000000      0.00000000      0.00000000</v>
   <i type="logical" name="LNICSALL"> T  </i>
   <i type="logical" name="ORBITALMAG"> F  </i>
   <i type="logical" name="LMAGBLOCH"> F  </i>
   <i type="logical" name="LCHIMAG"> F  </i>
   <i type="logical" name="LGAUGE"> T  </i>
   <i type="int" name="MAGATOM">     0</i>
   <v name="MAGDIPOL">      0.00000000      0.00000000      0.00000000</v>
   <v name="AVECCONST">      0.00000000      0.00000000      0.00000000</v>
  </separator>
  <separator name="response functions" >
   <i type="logical" name="LALL_IN_ONE"> F  </i>
   <i type="int" name="IALL_IN_ONE">    -1</i>
   <i type="int" name="NBANDS_WAVE">    -1</i>
   <i type="logical" name="LFINITE_TEMPERATURE"> F  </i>
   <i type="logical" name="LADDER"> F  </i>
   <i type="logical" name="LRPAFORCE"> F  </i>
   <i type="logical" name="LFXC"> F  </i>
   <i type="logical" name="LHARTREE"> T  </i>
   <i type="int" name="IBSE">     0</i>
   <v type="int" name="KPOINT">    -1     0     0     0</v>
   <i type="logical" name="LTCTC"> F  </i>
   <i type="logical" name="LTCTE"> F  </i>
   <i type="logical" name="LTETE"> F  </i>
   <i type="logical" name="LTRIPLET"> F  </i>
   <i type="logical" name="LFXCEPS"> F  </i>
   <i type="logical" name="LFXHEG"> F  </i>
   <i type="int" name="NATURALO">     2</i>
   <i type="logical" name="LHOLEGF"> F  </i>
   <i type="logical" name="L2ORDER"> F  </i>
   <i type="logical" name="LDMP1"> F  </i>
   <i type="logical" name="LMP2LT"> F  </i>
   <i type="logical" name="LSMP2LT"> F  </i>
   <i type="logical" name="LGWLF"> F  </i>
   <i name="ENCUTGW">     -1.60000002</i>
   <i name="ENCUTGWSOFT">     -1.60000002</i>
   <i name="ENCUTLF">     -1.00000000</i>
   <i type="logical" name="ESF_SPLINES"> F  </i>
   <i name="ESF_CONV">      0.01000000</i>
   <i type="int" name="ESF_NINTER">    15</i>
   <i type="int" name="LMAXMP2">    -1</i>
   <i name="SCISSOR">      0.00000000</i>
   <i type="int" name="NOMEGA">     0</i>
   <i type="int" name="NOMEGAR">     0</i>
   <i type="int" name="NBANDSGW">    -1</i>
   <i type="int" name="NBANDSO">    -1</i>
   <i type="int" name="NBANDSV">    -1</i>
   <i type="int" name="NELMGW">     1</i>
   <i type="int" name="NELMHF">     1</i>
   <i type="int" name="DIM">     3</i>
   <i type="int" name="IESPILON">     4</i>
   <i type="int" name="ANTIRES">     0</i>
   <i name="OMEGAMAX">    -30.00000000</i>
   <i name="OMEGAMIN">    -30.00000000</i>
   <i name="OMEGATL">   -200.00000000</i>
   <i type="int" name="OMEGAGRID">     0</i>
   <i name="CSHIFT">     -0.10000000</i>
   <i type="logical" name="LSELFENERGY"> F  </i>
   <i type="logical" name="LSPECTRAL"> F  </i>
   <i type="logical" name="LSPECTRALGW"> F  </i>
   <i type="logical" name="LSINGLES"> F  </i>
   <i type="logical" name="LFERMIGW"> F  </i>
   <i type="logical" name="ODDONLYGW"> F  </i>
   <i type="logical" name="EVENONLYGW"> F  </i>
   <i type="int" name="NKREDLFX">     1</i>
   <i type="int" name="NKREDLFY">     1</i>
   <i type="int" name="NKREDLFZ">     1</i>
   <i type="int" name="MAXMEM">  2800</i>
   <i type="int" name="TELESCOPE">     0</i>
   <i type="int" name="NTAUPAR">    -1</i>
   <i type="int" name="NOMEGAPAR">    -1</i>
   <i name="DAMP_NEWTON">      0.80000001</i>
   <i name="LAMBDA">      1.00000000</i>
  </separator>
  <separator name="External order field" >
   <i name="OFIELD_KAPPA">      0.00000000</i>
   <v name="OFIELD_K">      0.00000000      0.00000000      0.00000000</v>
   <i name="OFIELD_Q6_NEAR">      0.00000000</i>
   <i name="OFIELD_Q6_FAR">      0.00000000</i>
   <i name="OFIELD_A">      0.00000000</i>
  </separator>
  <separator name="optional k-points parameters" >
   <i type="int" name="KPOINTS_OPT_MODE">     1</i>
   <i type="logical" name="LKPOINTS_OPT"> F  </i>
  </separator>
 </parameters>
 <atominfo>
  <atoms>       8 </atoms>
  <types>       2 </types>
  <array name="atoms" >
   <dimension dim="1">ion</dimension>
   <field type="string">element</field>
   <field type="int">atomtype</field>
   <set>
    <rc><c>Cs</c><c>   1</c></rc>
    <rc><c>Cs</c><c>   1</c></rc>
    <rc><c>Cs</c><c>   1</c></rc>
    <rc><c>Cs</c><c>   1</c></rc>
    <rc><c>Cl</c><c>   2</c></rc>
    <rc><c>Cl</c><c>   2</c></rc>
    <rc><c>Cl</c><c>   2</c></rc>
    <rc><c>Cl</c><c>   2</c></rc>
   </set>
  </array>
  <array name="atomtypes" >
   <dimension dim="1">type</dimension>
   <field type="int">atomspertype</field>
   <field type="string">element</field>
   <field>mass</field>
   <field>valence</field>
   <field type="string">pseudopotential</field>
   <set>
    <rc><c>   4</c><c>Cs</c><c>    132.90000000</c><c>      9.00000000</c><c>  PAW_PBE Cs_sv 25Jan2019               </c></rc>
    <rc><c>   4</c><c>Cl</c><c>     35.45300000</c><c>      7.00000000</c><c>  PAW_PBE Cl 06Sep2000                  </c></rc>
   </set>
  </array>
 </atominfo>
 <structure name="initialpos" >
  <crystal>
   <varray name="basis" >
    <v>       8.28739668       8.28739668       0.00000000 </v>
    <v>      -4.14369834       4.14369834      -0.00000000 </v>
    <v>       0.00000000       0.00000000       4.14369834 </v>
   </varray>
   <i name="volume">    284.59311253 </i>
   <varray name="rec_basis" >
    <v>       0.06033258       0.06033258      -0.00000000 </v>
    <v>      -0.12066515       0.12066515       0.00000000 </v>
    <v>      -0.00000000      -0.00000000       0.24133031 </v>
   </varray>
  </crystal>
  <varray name="positions" >
   <v>       0.00000000       0.00000000       0.00000000 </v>
   <v>       0.25000000       0.50000000       0.00000000 </v>
   <v>       0.50000000       0.00000000       0.00000000 </v>
   <v>       0.75000000       0.50000000       0.00000000 </v>
   <v>       0.25072764       0.00072764       0.50072764 </v>
   <v>       0.50000000       0.50000000       0.50000000 </v>
   <v>       0.75000000       0.00000000       0.50000000 </v>
   <v>       0.00000000       0.50000000       0.50000000 </v>
  </varray>
 </structure>
 <calculation>
  <scstep>
   <time name="dav">    1.73    1.76</time>
   <time name="total">    1.76    1.78</time>
   <energy>
    <i name="alphaZ">    214.16676563 </i>
    <i name="ewald">  -3265.84712068 </i>
    <i name="hartreedc">   -531.75844328 </i>
    <i name="XCdc">   -120.86789107 </i>
    <i name="pawpsdc">   3246.12869203 </i>
    <i name="pawaedc">  -2972.40719683 </i>
    <i name="eentropy">     -0.00012577 </i>
    <i name="bandstr">     39.18091508 </i>
    <i name="atom">   3861.61514281 </i>
    <i name="e_fr_energy">    470.21073793 </i>
    <i name="e_wo_entrp">    470.21086370 </i>
    <i name="e_0_energy">    470.21080081 </i>
   </energy>
  </scstep>
  <scstep>
   <time name="dav">    2.19    2.20</time>
   <time name="total">    2.19    2.20</time>
   <energy>
    <i name="e_fr_energy">     16.51243494 </i>
    <i name="e_wo_entrp">     16.51243494 </i>
    <i name="e_0_energy">     16.51243494 </i>
   </energy>
  </scstep>
  <scstep>
   <time name="dav">    1.97    1.97</time>
   <time name="total">    1.97    1.97</time>
   <energy>
    <i name="e_fr_energy">    -27.12266438 </i>
    <i name="e_wo_entrp">    -27.12266438 </i>
    <i name="e_0_energy">    -27.12266438 </i>
   </energy>
  </scstep>
  <scstep>
   <time name="dav">    1.95    1.96</time>
   <time name="total">    1.95    1.96</time>
   <energy>
    <i name="e_fr_energy">    -27.79873623 </i>
    <i name="e_wo_entrp">    -27.79873623 </i>
    <i name="e_0_energy">    -27.79873623 </i>
   </energy>
  </scstep>
  <scstep>
   <time name="dav">    1.89    1.89</time>
   <time name="total">    1.99    2.00</time>
   <energy>
    <i name="e_fr_energy">    -27.81210343 </i>
    <i name="e_wo_entrp">    -27.81210343 </i>
    <i name="e_0_energy">    -27.81210343 </i>
   </energy>
  </scstep>
  <scstep>
   <time name="dav">    1.91    1.91</time>
   <time name="total">    2.04    2.04</time>
   <energy>
    <i name="e_fr_energy">    -26.30009231 </i>
    <i name="e_wo_entrp">    -26.30009231 </i>
    <i name="e_0_energy">    -26.30009231 </i>
   </energy>
  </scstep>
  <scstep>
   <time name="dav">    2.11    2.11</time>
   <time name="total">    2.23    2.23</time>
   <energy>
    <i name="e_fr_energy">    -26.13484511 </i>
    <i name="e_wo_entrp">    -26.13484511 </i>
    <i name="e_0_energy">    -26.13484511 </i>
   </energy>
  </scstep>
  <scstep>
   <time name="dav">    1.92    1.92</time>
   <time name="total">    2.04    2.04</time>
   <energy>
    <i name="e_fr_energy">    -26.13518034 </i>
    <i name="e_wo_entrp">    -26.13518034 </i>
    <i name="e_0_energy">    -26.13518034 </i>
   </energy>
  </scstep>
  <scstep>
   <time name="dav">    2.04    2.04</time>
   <time name="total">    2.16    2.16</time>
   <energy>
    <i name="e_fr_energy">    -26.13109876 </i>
    <i name="e_wo_entrp">    -26.13109876 </i>
    <i name="e_0_energy">    -26.13109876 </i>
   </energy>
  </scstep>
  <scstep>
   <time name="dav">    1.90    1.90</time>
   <time name="total">    2.03    2.03</time>
   <energy>
    <i name="e_fr_energy">    -26.13205094 </i>
    <i name="e_wo_entrp">    -26.13205094 </i>
    <i name="e_0_energy">    -26.13205094 </i>
   </energy>
  </scstep>
  <scstep>
   <time name="dav">    1.92    1.92</time>
   <time name="total">    2.04    2.05</time>
   <energy>
    <i name="e_fr_energy">    -26.13224518 </i>
    <i name="e_wo_entrp">    -26.13224518 </i>
    <i name="e_0_energy">    -26.13224518 </i>
   </energy>
  </scstep>
  <scstep>
   <time name="dav">    1.92    1.92</time>
   <time name="total">    2.04    2.04</time>
   <energy>
    <i name="e_fr_energy">    -26.13225620 </i>
    <i name="e_wo_entrp">    -26.13225620 </i>
    <i name="e_0_energy">    -26.13225620 </i>
   </energy>
  </scstep>
  <scstep>
   <time name="dav">    1.98    1.98</time>
   <time name="total">    2.10    2.10</time>
   <energy>
    <i name="e_fr_energy">    -26.13225450 </i>
    <i name="e_wo_entrp">    -26.13225450 </i>
    <i name="e_0_energy">    -26.13225450 </i>
   </energy>
  </scstep>
  <scstep>
   <time name="dav">    1.90    1.90</time>
   <time name="total">    2.03    2.03</time>
   <energy>
    <i name="e_fr_energy">    -26.13225412 </i>
    <i name="e_wo_entrp">    -26.13225412 </i>
    <i name="e_0_energy">    -26.13225412 </i>
   </energy>
  </scstep>
  <scstep>
   <time name="dav">    1.99    2.00</time>
   <time name="total">    2.12    2.12</time>
   <energy>
    <i name="e_fr_energy">    -26.13225417 </i>
    <i name="e_wo_entrp">    -26.13225417 </i>
    <i name="e_0_energy">    -26.13225417 </i>
   </energy>
  </scstep>
  <scstep>
   <time name="dav">    1.55    1.55</time>
   <time name="total">    1.67    1.67</time>
   <energy>
    <i name="e_fr_energy">    -26.13225416 </i>
    <i name="e_wo_entrp">    -26.13225416 </i>
    <i name="e_0_energy">    -26.13225416 </i>
   </energy>
  </scstep>
  <scstep>
   <time name="dav">    1.52    1.53</time>
   <time name="total">    1.65    1.65</time>
   <energy>
    <i name="e_fr_energy">    -26.13225418 </i>
    <i name="e_wo_entrp">    -26.13225418 </i>
    <i name="e_0_energy">    -26.13225418 </i>
   </energy>
  </scstep>
  <scstep>
   <time name="dav">    1.44    1.44</time>
   <time name="total">    1.46    1.46</time>
   <energy>
    <i name="alphaZ">    214.16676563 </i>
    <i name="ewald">  -3265.84712068 </i>
    <i name="hartreedc">   -554.75608053 </i>
    <i name="XCdc">   -118.49242982 </i>
    <i name="pawpsdc">   3633.68483402 </i>
    <i name="pawaedc">  -3361.18172073 </i>
    <i name="eentropy">     -0.00000000 </i>
    <i name="bandstr">   -435.32164487 </i>
    <i name="atom">   3861.61514281 </i>
    <i name="e_fr_energy">    -26.13225417 </i>
    <i name="e_wo_entrp">    -26.13225417 </i>
    <i name="e_0_energy">    -26.13225417 </i>
   </energy>
  </scstep>
  <structure>
   <crystal>
    <varray name="basis" >
     <v>       8.28739668       8.28739668       0.00000000 </v>
     <v>      -4.14369834       4.14369834      -0.00000000 </v>
     <v>       0.00000000       0.00000000       4.14369834 </v>
    </varray>
    <i name="volume">    284.59311253 </i>
    <varray name="rec_basis" >
     <v>       0.06033258       0.06033258      -0.00000000 </v>
     <v>      -0.12066515       0.12066515       0.00000000 </v>
     <v>      -0.00000000      -0.00000000       0.24133031 </v>
    </varray>
   </crystal>
   <varray name="positions" >
    <v>       0.00000000       0.00000000       0.00000000 </v>
    <v>       0.25000000       0.50000000       0.00000000 </v>
    <v>       0.50000000       0.00000000       0.00000000 </v>
    <v>       0.75000000       0.50000000       0.00000000 </v>
    <v>       0.25072764       0.00072764       0.50072764 </v>
    <v>       0.50000000       0.50000000       0.50000000 </v>
    <v>       0.75000000       0.00000000       0.50000000 </v>
    <v>       0.00000000       0.50000000       0.50000000 </v>
   </varray>
  </structure>
  <varray name="forces" >
   <v>       0.00173633       0.00212635       0.00057640 </v>
   <v>       0.00094199       0.00485982       0.00118706 </v>
   <v>       0.00185384       0.00223073       0.00062224 </v>
   <v>      -0.00215024      -0.00210187       0.00001057 </v>
   <v>      -0.00645464      -0.01371241      -0.00240972 </v>
   <v>       0.00060647       0.00184522      -0.00005478 </v>
   <v>       0.00284339       0.00292289       0.00012139 </v>
   <v>       0.00062286       0.00182927      -0.00005317 </v>
  </varray>
  <varray name="stress" >
   <v>       7.40781541       0.00191212       0.00023090 </v>
   <v>       0.00191216       7.40776058       0.00069407 </v>
   <v>       0.00023087       0.00069400       7.40584498 </v>
  </varray>
  <energy>
   <i name="e_fr_energy">    -26.13225417 </i>
   <i name="e_wo_entrp">    -26.13225417 </i>
   <i name="e_0_energy">    -26.13225417 </i>
  </energy>
  <time name="totalsc">   37.32   37.39</time>
  <eigenvalues>
   <array>
    <dimension dim="1">band</dimension>
    <dimension dim="2">kpoint</dimension>
    <dimension dim="3">spin</dimension>
    <field>eigene</field>
    <field>occ</field>
    <set>
     <set comment="spin 1">
      <set comment="kpoint 1">
       <r>  -19.7968    1.0000 </r>
       <r>  -19.7227    1.0000 </r>
       <r>  -19.7227    1.0000 </r>
       <r>  -19.6528    1.0000 </r>
       <r>  -12.5557    1.0000 </r>
       <r>  -12.5505    1.0000 </r>
       <r>  -12.5478    1.0000 </r>
       <r>  -12.4678    1.0000 </r>
       <r>   -7.0330    1.0000 </r>
       <r>   -7.0329    1.0000 </r>
       <r>   -6.6848    1.0000 </r>
       <r>   -6.6845    1.0000 </r>
       <r>   -6.5072    1.0000 </r>
       <r>   -6.5070    1.0000 </r>
       <r>   -6.2939    1.0000 </r>
       <r>   -6.2935    1.0000 </r>
       <r>   -6.2934    1.0000 </r>
       <r>   -6.1742    1.0000 </r>
       <r>   -6.1739    1.0000 </r>
       <r>   -6.0757    1.0000 </r>
       <r>   -1.0679    1.0000 </r>
       <r>   -1.0672    1.0000 </r>
       <r>   -0.8187    1.0000 </r>
       <r>   -0.8186    1.0000 </r>
       <r>   -0.6464    1.0000 </r>
       <r>   -0.6431    1.0000 </r>
       <r>   -0.5163    1.0000 </r>
       <r>   -0.5159    1.0000 </r>
       <r>   -0.4431    1.0000 </r>
       <r>   -0.3952    1.0000 </r>
       <r>   -0.3951    1.0000 </r>
       <r>   -0.3950    1.0000 </r>
       <r>    4.7978    0.0000 </r>
       <r>    5.0131    0.0000 </r>
       <r>    5.0131    0.0000 </r>
       <r>    5.5406    0.0000 </r>
       <r>    5.6176    0.0000 </r>
       <r>    5.8573    0.0000 </r>
       <r>    5.8575    0.0000 </r>
       <r>    6.4670    0.0000 </r>
      </set>
      <set comment="kpoint 2">
       <r>  -19.7912    1.0000 </r>
       <r>  -19.7501    1.0000 </r>
       <r>  -19.6960    1.0000 </r>
       <r>  -19.6578    1.0000 </r>
       <r>  -12.5613    1.0000 </r>
       <r>  -12.5541    1.0000 </r>
       <r>  -12.5294    1.0000 </r>
       <r>  -12.4774    1.0000 </r>
       <r>   -7.0078    1.0000 </r>
       <r>   -6.9835    1.0000 </r>
       <r>   -6.8223    1.0000 </r>
       <r>   -6.6747    1.0000 </r>
       <r>   -6.5407    1.0000 </r>
       <r>   -6.3862    1.0000 </r>
       <r>   -6.3250    1.0000 </r>
       <r>   -6.2980    1.0000 </r>
       <r>   -6.2842    1.0000 </r>
       <r>   -6.2174    1.0000 </r>
       <r>   -6.1339    1.0000 </r>
       <r>   -6.0821    1.0000 </r>
       <r>   -1.0667    1.0000 </r>
       <r>   -0.9423    1.0000 </r>
       <r>   -0.8662    1.0000 </r>
       <r>   -0.8070    1.0000 </r>
       <r>   -0.7171    1.0000 </r>
       <r>   -0.5621    1.0000 </r>
       <r>   -0.5133    1.0000 </r>
       <r>   -0.4929    1.0000 </r>
       <r>   -0.4915    1.0000 </r>
       <r>   -0.4564    1.0000 </r>
       <r>   -0.4186    1.0000 </r>
       <r>   -0.4105    1.0000 </r>
       <r>    4.9841    0.0000 </r>
       <r>    5.0989    0.0000 </r>
       <r>    5.1645    0.0000 </r>
       <r>    5.6036    0.0000 </r>
       <r>    5.6246    0.0000 </r>
       <r>    5.7424    0.0000 </r>
       <r>    5.8790    0.0000 </r>
       <r>    6.0661    0.0000 </r>
      </set>
      <set comment="kpoint 3">
       <r>  -19.7789    1.0000 </r>
       <r>  -19.7701    1.0000 </r>
       <r>  -19.6775    1.0000 </r>
       <r>  -19.6686    1.0000 </r>
       <r>  -12.5624    1.0000 </r>
       <r>  -12.5569    1.0000 </r>
       <r>  -12.5049    1.0000 </r>
       <r>  -12.4983    1.0000 </r>
       <r>   -6.9387    1.0000 </r>
       <r>   -6.9308    1.0000 </r>
       <r>   -6.8547    1.0000 </r>
       <r>   -6.8463    1.0000 </r>
       <r>   -6.4174    1.0000 </r>
       <r>   -6.4091    1.0000 </r>
       <r>   -6.3259    1.0000 </r>
       <r>   -6.3176    1.0000 </r>
       <r>   -6.2610    1.0000 </r>
       <r>   -6.2525    1.0000 </r>
       <r>   -6.1065    1.0000 </r>
       <r>   -6.0976    1.0000 </r>
       <r>   -0.9778    1.0000 </r>
       <r>   -0.9718    1.0000 </r>
       <r>   -0.7747    1.0000 </r>
       <r>   -0.7703    1.0000 </r>
       <r>   -0.7223    1.0000 </r>
       <r>   -0.7153    1.0000 </r>
       <r>   -0.4906    1.0000 </r>
       <r>   -0.4852    1.0000 </r>
       <r>   -0.4841    1.0000 </r>
       <r>   -0.4762    1.0000 </r>
       <r>   -0.4522    1.0000 </r>
       <r>   -0.4460    1.0000 </r>
       <r>    5.3123    0.0000 </r>
       <r>    5.3214    0.0000 </r>
       <r>    5.4775    0.0000 </r>
       <r>    5.4855    0.0000 </r>
       <r>    5.5972    0.0000 </r>
       <r>    5.6063    0.0000 </r>
       <r>    5.7410    0.0000 </r>
       <r>    5.7497    0.0000 </r>
      </set>
      <set comment="kpoint 4">
       <r>  -19.7894    1.0000 </r>
       <r>  -19.7221    1.0000 </r>
       <r>  -19.7221    1.0000 </r>
       <r>  -19.6594    1.0000 </r>
       <r>  -12.5614    1.0000 </r>
       <r>  -12.5585    1.0000 </r>
       <r>  -12.5531    1.0000 </r>
       <r>  -12.4802    1.0000 </r>
       <r>   -7.0001    1.0000 </r>
       <r>   -6.9689    1.0000 </r>
       <r>   -6.7302    1.0000 </r>
       <r>   -6.7299    1.0000 </r>
       <r>   -6.4215    1.0000 </r>
       <r>   -6.4213    1.0000 </r>
       <r>   -6.3343    1.0000 </r>
       <r>   -6.2999    1.0000 </r>
       <r>   -6.2812    1.0000 </r>
       <r>   -6.1715    1.0000 </r>
       <r>   -6.1712    1.0000 </r>
       <r>   -6.0842    1.0000 </r>
       <r>   -1.1607    1.0000 </r>
       <r>   -1.1603    1.0000 </r>
       <r>   -0.8797    1.0000 </r>
       <r>   -0.8034    1.0000 </r>
       <r>   -0.6367    1.0000 </r>
       <r>   -0.6348    1.0000 </r>
       <r>   -0.5360    1.0000 </r>
       <r>   -0.5356    1.0000 </r>
       <r>   -0.5201    1.0000 </r>
       <r>   -0.4603    1.0000 </r>
       <r>   -0.4256    1.0000 </r>
       <r>   -0.4151    1.0000 </r>
       <r>    5.0368    0.0000 </r>
       <r>    5.1259    0.0000 </r>
       <r>    5.2103    0.0000 </r>
       <r>    5.6212    0.0000 </r>
       <r>    5.7804    0.0000 </r>
       <r>    5.9132    0.0000 </r>
       <r>    5.9136    0.0000 </r>
       <r>    6.5723    0.0000 </r>
      </set>
      <set comment="kpoint 5">
       <r>  -19.7843    1.0000 </r>
       <r>  -19.7468    1.0000 </r>
       <r>  -19.6981    1.0000 </r>
       <r>  -19.6638    1.0000 </r>
       <r>  -12.5672    1.0000 </r>
       <r>  -12.5580    1.0000 </r>
       <r>  -12.5390    1.0000 </r>
       <r>  -12.4894    1.0000 </r>
       <r>   -6.9934    1.0000 </r>
       <r>   -6.9048    1.0000 </r>
       <r>   -6.8475    1.0000 </r>
       <r>   -6.6040    1.0000 </r>
       <r>   -6.5847    1.0000 </r>
       <r>   -6.3905    1.0000 </r>
       <r>   -6.3112    1.0000 </r>
       <r>   -6.2723    1.0000 </r>
       <r>   -6.2723    1.0000 </r>
       <r>   -6.2107    1.0000 </r>
       <r>   -6.1355    1.0000 </r>
       <r>   -6.0897    1.0000 </r>
       <r>   -1.1441    1.0000 </r>
       <r>   -1.0523    1.0000 </r>
       <r>   -0.9261    1.0000 </r>
       <r>   -0.7954    1.0000 </r>
       <r>   -0.7077    1.0000 </r>
       <r>   -0.6268    1.0000 </r>
       <r>   -0.5546    1.0000 </r>
       <r>   -0.5321    1.0000 </r>
       <r>   -0.5116    1.0000 </r>
       <r>   -0.4737    1.0000 </r>
       <r>   -0.4311    1.0000 </r>
       <r>   -0.4307    1.0000 </r>
       <r>    5.1330    0.0000 </r>
       <r>    5.2069    0.0000 </r>
       <r>    5.4373    0.0000 </r>
       <r>    5.6265    0.0000 </r>
       <r>    5.7050    0.0000 </r>
       <r>    5.8885    0.0000 </r>
       <r>    5.9801    0.0000 </r>
       <r>    6.1401    0.0000 </r>
      </set>
      <set comment="kpoint 6">
       <r>  -19.7843    1.0000 </r>
       <r>  -19.7468    1.0000 </r>
       <r>  -19.6981    1.0000 </r>
       <r>  -19.6638    1.0000 </r>
       <r>  -12.5672    1.0000 </r>
       <r>  -12.5579    1.0000 </r>
       <r>  -12.5390    1.0000 </r>
       <r>  -12.4894    1.0000 </r>
       <r>   -6.9934    1.0000 </r>
       <r>   -6.9048    1.0000 </r>
       <r>   -6.8475    1.0000 </r>
       <r>   -6.6041    1.0000 </r>
       <r>   -6.5847    1.0000 </r>
       <r>   -6.3905    1.0000 </r>
       <r>   -6.3112    1.0000 </r>
       <r>   -6.2723    1.0000 </r>
       <r>   -6.2723    1.0000 </r>
       <r>   -6.2107    1.0000 </r>
       <r>   -6.1355    1.0000 </r>
       <r>   -6.0897    1.0000 </r>
       <r>   -1.1441    1.0000 </r>
       <r>   -1.0523    1.0000 </r>
       <r>   -0.9261    1.0000 </r>
       <r>   -0.7953    1.0000 </r>
       <r>   -0.7077    1.0000 </r>
       <r>   -0.6267    1.0000 </r>
       <r>   -0.5548    1.0000 </r>
       <r>   -0.5321    1.0000 </r>
       <r>   -0.5116    1.0000 </r>
       <r>   -0.4737    1.0000 </r>
       <r>   -0.4310    1.0000 </r>
       <r>   -0.4307    1.0000 </r>
       <r>    5.1330    0.0000 </r>
       <r>    5.2069    0.0000 </r>
       <r>    5.4373    0.0000 </r>
       <r>    5.6264    0.0000 </r>
       <r>    5.7051    0.0000 </r>
       <r>    5.8885    0.0000 </r>
       <r>    5.9801    0.0000 </r>
       <r>    6.1401    0.0000 </r>
      </set>
      <set comment="kpoint 7">
       <r>  -19.7734    1.0000 </r>
       <r>  -19.7646    1.0000 </r>
       <r>  -19.6819    1.0000 </r>
       <r>  -19.6731    1.0000 </r>
       <r>  -12.5670    1.0000 </r>
       <r>  -12.5615    1.0000 </r>
       <r>  -12.5159    1.0000 </r>
       <r>  -12.5094    1.0000 </r>
       <r>   -6.9416    1.0000 </r>
       <r>   -6.9398    1.0000 </r>
       <r>   -6.7632    1.0000 </r>
       <r>   -6.7609    1.0000 </r>
       <r>   -6.4874    1.0000 </r>
       <r>   -6.4853    1.0000 </r>
       <r>   -6.2672    1.0000 </r>
       <r>   -6.2653    1.0000 </r>
       <r>   -6.2511    1.0000 </r>
       <r>   -6.2426    1.0000 </r>
       <r>   -6.1116    1.0000 </r>
       <r>   -6.1028    1.0000 </r>
       <r>   -1.0421    1.0000 </r>
       <r>   -1.0385    1.0000 </r>
       <r>   -0.8459    1.0000 </r>
       <r>   -0.8442    1.0000 </r>
       <r>   -0.7637    1.0000 </r>
       <r>   -0.7617    1.0000 </r>
       <r>   -0.5085    1.0000 </r>
       <r>   -0.5020    1.0000 </r>
       <r>   -0.4810    1.0000 </r>
       <r>   -0.4776    1.0000 </r>
       <r>   -0.4725    1.0000 </r>
       <r>   -0.4663    1.0000 </r>
       <r>    5.3111    0.0000 </r>
       <r>    5.3151    0.0000 </r>
       <r>    5.6242    0.0000 </r>
       <r>    5.6319    0.0000 </r>
       <r>    5.8560    0.0000 </r>
       <r>    5.8650    0.0000 </r>
       <r>    5.9385    0.0000 </r>
       <r>    5.9416    0.0000 </r>
      </set>
      <set comment="kpoint 8">
       <r>  -19.7689    1.0000 </r>
       <r>  -19.7207    1.0000 </r>
       <r>  -19.7206    1.0000 </r>
       <r>  -19.6780    1.0000 </r>
       <r>  -12.5777    1.0000 </r>
       <r>  -12.5764    1.0000 </r>
       <r>  -12.5595    1.0000 </r>
       <r>  -12.5095    1.0000 </r>
       <r>   -6.9063    1.0000 </r>
       <r>   -6.8033    1.0000 </r>
       <r>   -6.7809    1.0000 </r>
       <r>   -6.7802    1.0000 </r>
       <r>   -6.4467    1.0000 </r>
       <r>   -6.3352    1.0000 </r>
       <r>   -6.2768    1.0000 </r>
       <r>   -6.2766    1.0000 </r>
       <r>   -6.2468    1.0000 </r>
       <r>   -6.1655    1.0000 </r>
       <r>   -6.1652    1.0000 </r>
       <r>   -6.1094    1.0000 </r>
       <r>   -1.3582    1.0000 </r>
       <r>   -1.3571    1.0000 </r>
       <r>   -1.0065    1.0000 </r>
       <r>   -0.7884    1.0000 </r>
       <r>   -0.7586    1.0000 </r>
       <r>   -0.6243    1.0000 </r>
       <r>   -0.6239    1.0000 </r>
       <r>   -0.5795    1.0000 </r>
       <r>   -0.5791    1.0000 </r>
       <r>   -0.5027    1.0000 </r>
       <r>   -0.4958    1.0000 </r>
       <r>   -0.4617    1.0000 </r>
       <r>    5.4024    0.0000 </r>
       <r>    5.6481    0.0000 </r>
       <r>    5.7731    0.0000 </r>
       <r>    5.7901    0.0000 </r>
       <r>    5.9760    0.0000 </r>
       <r>    5.9762    0.0000 </r>
       <r>    6.1881    0.0000 </r>
       <r>    6.8752    0.0000 </r>
      </set>
      <set comment="kpoint 9">
       <r>  -19.7653    1.0000 </r>
       <r>  -19.7377    1.0000 </r>
       <r>  -19.7045    1.0000 </r>
       <r>  -19.6807    1.0000 </r>
       <r>  -12.5801    1.0000 </r>
       <r>  -12.5657    1.0000 </r>
       <r>  -12.5598    1.0000 </r>
       <r>  -12.5178    1.0000 </r>
       <r>   -6.9172    1.0000 </r>
       <r>   -6.8549    1.0000 </r>
       <r>   -6.7311    1.0000 </r>
       <r>   -6.6927    1.0000 </r>
       <r>   -6.5055    1.0000 </r>
       <r>   -6.4131    1.0000 </r>
       <r>   -6.2831    1.0000 </r>
       <r>   -6.2399    1.0000 </r>
       <r>   -6.2118    1.0000 </r>
       <r>   -6.1933    1.0000 </r>
       <r>   -6.1414    1.0000 </r>
       <r>   -6.1123    1.0000 </r>
       <r>   -1.3155    1.0000 </r>
       <r>   -1.2738    1.0000 </r>
       <r>   -1.0595    1.0000 </r>
       <r>   -0.8846    1.0000 </r>
       <r>   -0.7515    1.0000 </r>
       <r>   -0.6810    1.0000 </r>
       <r>   -0.5726    1.0000 </r>
       <r>   -0.5647    1.0000 </r>
       <r>   -0.5574    1.0000 </r>
       <r>   -0.5099    1.0000 </r>
       <r>   -0.4987    1.0000 </r>
       <r>   -0.4775    1.0000 </r>
       <r>    5.3921    0.0000 </r>
       <r>    5.6868    0.0000 </r>
       <r>    5.7343    0.0000 </r>
       <r>    5.8801    0.0000 </r>
       <r>    6.0554    0.0000 </r>
       <r>    6.1291    0.0000 </r>
       <r>    6.2984    0.0000 </r>
       <r>    6.5056    0.0000 </r>
      </set>
      <set comment="kpoint 10">
       <r>  -19.7653    1.0000 </r>
       <r>  -19.7377    1.0000 </r>
       <r>  -19.7045    1.0000 </r>
       <r>  -19.6807    1.0000 </r>
       <r>  -12.5802    1.0000 </r>
       <r>  -12.5655    1.0000 </r>
       <r>  -12.5600    1.0000 </r>
       <r>  -12.5178    1.0000 </r>
       <r>   -6.9172    1.0000 </r>
       <r>   -6.8549    1.0000 </r>
       <r>   -6.7310    1.0000 </r>
       <r>   -6.6928    1.0000 </r>
       <r>   -6.5055    1.0000 </r>
       <r>   -6.4131    1.0000 </r>
       <r>   -6.2831    1.0000 </r>
       <r>   -6.2399    1.0000 </r>
       <r>   -6.2118    1.0000 </r>
       <r>   -6.1933    1.0000 </r>
       <r>   -6.1414    1.0000 </r>
       <r>   -6.1123    1.0000 </r>
       <r>   -1.3155    1.0000 </r>
       <r>   -1.2738    1.0000 </r>
       <r>   -1.0596    1.0000 </r>
       <r>   -0.8845    1.0000 </r>
       <r>   -0.7515    1.0000 </r>
       <r>   -0.6810    1.0000 </r>
       <r>   -0.5726    1.0000 </r>
       <r>   -0.5648    1.0000 </r>
       <r>   -0.5574    1.0000 </r>
       <r>   -0.5099    1.0000 </r>
       <r>   -0.4987    1.0000 </r>
       <r>   -0.4775    1.0000 </r>
       <r>    5.3921    0.0000 </r>
       <r>    5.6869    0.0000 </r>
       <r>    5.7342    0.0000 </r>
       <r>    5.8801    0.0000 </r>
       <r>    6.0554    0.0000 </r>
       <r>    6.1291    0.0000 </r>
       <r>    6.2984    0.0000 </r>
       <r>    6.5057    0.0000 </r>
      </set>
      <set comment="kpoint 11">
       <r>  -19.7583    1.0000 </r>
       <r>  -19.7495    1.0000 </r>
       <r>  -19.6946    1.0000 </r>
       <r>  -19.6858    1.0000 </r>
       <r>  -12.5761    1.0000 </r>
       <r>  -12.5704    1.0000 </r>
       <r>  -12.5417    1.0000 </r>
       <r>  -12.5353    1.0000 </r>
       <r>   -6.9042    1.0000 </r>
       <r>   -6.9030    1.0000 </r>
       <r>   -6.5988    1.0000 </r>
       <r>   -6.5981    1.0000 </r>
       <r>   -6.5822    1.0000 </r>
       <r>   -6.5812    1.0000 </r>
       <r>   -6.2246    1.0000 </r>
       <r>   -6.2231    1.0000 </r>
       <r>   -6.2223    1.0000 </r>
       <r>   -6.2161    1.0000 </r>
       <r>   -6.1275    1.0000 </r>
       <r>   -6.1187    1.0000 </r>
       <r>   -1.1892    1.0000 </r>
       <r>   -1.1886    1.0000 </r>
       <r>   -1.0885    1.0000 </r>
       <r>   -1.0867    1.0000 </r>
       <r>   -0.7258    1.0000 </r>
       <r>   -0.7253    1.0000 </r>
       <r>   -0.5464    1.0000 </r>
       <r>   -0.5399    1.0000 </r>
       <r>   -0.5193    1.0000 </r>
       <r>   -0.5178    1.0000 </r>
       <r>   -0.5170    1.0000 </r>
       <r>   -0.5130    1.0000 </r>
       <r>    5.4637    0.0000 </r>
       <r>    5.4669    0.0000 </r>
       <r>    6.0448    0.0000 </r>
       <r>    6.0537    0.0000 </r>
       <r>    6.0771    0.0000 </r>
       <r>    6.0847    0.0000 </r>
       <r>    6.6153    0.0000 </r>
       <r>    6.6253    0.0000 </r>
      </set>
      <set comment="kpoint 12">
       <r>  -19.7406    1.0000 </r>
       <r>  -19.7202    1.0000 </r>
       <r>  -19.7195    1.0000 </r>
       <r>  -19.7042    1.0000 </r>
       <r>  -12.5915    1.0000 </r>
       <r>  -12.5907    1.0000 </r>
       <r>  -12.5568    1.0000 </r>
       <r>  -12.5394    1.0000 </r>
       <r>   -6.8062    1.0000 </r>
       <r>   -6.8058    1.0000 </r>
       <r>   -6.7650    1.0000 </r>
       <r>   -6.6017    1.0000 </r>
       <r>   -6.5990    1.0000 </r>
       <r>   -6.4308    1.0000 </r>
       <r>   -6.1999    1.0000 </r>
       <r>   -6.1742    1.0000 </r>
       <r>   -6.1742    1.0000 </r>
       <r>   -6.1624    1.0000 </r>
       <r>   -6.1604    1.0000 </r>
       <r>   -6.1471    1.0000 </r>
       <r>   -1.5101    1.0000 </r>
       <r>   -1.5095    1.0000 </r>
       <r>   -1.0815    1.0000 </r>
       <r>   -1.0112    1.0000 </r>
       <r>   -0.6880    1.0000 </r>
       <r>   -0.6195    1.0000 </r>
       <r>   -0.6189    1.0000 </r>
       <r>   -0.6138    1.0000 </r>
       <r>   -0.6135    1.0000 </r>
       <r>   -0.5974    1.0000 </r>
       <r>   -0.5176    1.0000 </r>
       <r>   -0.5046    1.0000 </r>
       <r>    5.7433    0.0000 </r>
       <r>    5.8969    0.0000 </r>
       <r>    6.0066    0.0000 </r>
       <r>    6.0068    0.0000 </r>
       <r>    6.2807    0.0000 </r>
       <r>    6.4975    0.0000 </r>
       <r>    6.6373    0.0000 </r>
       <r>    7.1090    0.0000 </r>
      </set>
      <set comment="kpoint 13">
       <r>  -19.7394    1.0000 </r>
       <r>  -19.7255    1.0000 </r>
       <r>  -19.7153    1.0000 </r>
       <r>  -19.7044    1.0000 </r>
       <r>  -12.5883    1.0000 </r>
       <r>  -12.5821    1.0000 </r>
       <r>  -12.5621    1.0000 </r>
       <r>  -12.5463    1.0000 </r>
       <r>   -6.8252    1.0000 </r>
       <r>   -6.7947    1.0000 </r>
       <r>   -6.7677    1.0000 </r>
       <r>   -6.6480    1.0000 </r>
       <r>   -6.5279    1.0000 </r>
       <r>   -6.3657    1.0000 </r>
       <r>   -6.2539    1.0000 </r>
       <r>   -6.1963    1.0000 </r>
       <r>   -6.1793    1.0000 </r>
       <r>   -6.1719    1.0000 </r>
       <r>   -6.1555    1.0000 </r>
       <r>   -6.1462    1.0000 </r>
       <r>   -1.4501    1.0000 </r>
       <r>   -1.4400    1.0000 </r>
       <r>   -1.1468    1.0000 </r>
       <r>   -1.0917    1.0000 </r>
       <r>   -0.6807    1.0000 </r>
       <r>   -0.6420    1.0000 </r>
       <r>   -0.6019    1.0000 </r>
       <r>   -0.5990    1.0000 </r>
       <r>   -0.5961    1.0000 </r>
       <r>   -0.5906    1.0000 </r>
       <r>   -0.5325    1.0000 </r>
       <r>   -0.5202    1.0000 </r>
       <r>    5.7624    0.0000 </r>
       <r>    5.8790    0.0000 </r>
       <r>    5.9656    0.0000 </r>
       <r>    6.0972    0.0000 </r>
       <r>    6.3266    0.0000 </r>
       <r>    6.6104    0.0000 </r>
       <r>    6.8569    0.0000 </r>
       <r>    6.9008    0.0000 </r>
      </set>
      <set comment="kpoint 14">
       <r>  -19.7394    1.0000 </r>
       <r>  -19.7255    1.0000 </r>
       <r>  -19.7153    1.0000 </r>
       <r>  -19.7044    1.0000 </r>
       <r>  -12.5883    1.0000 </r>
       <r>  -12.5820    1.0000 </r>
       <r>  -12.5621    1.0000 </r>
       <r>  -12.5463    1.0000 </r>
       <r>   -6.8252    1.0000 </r>
       <r>   -6.7947    1.0000 </r>
       <r>   -6.7677    1.0000 </r>
       <r>   -6.6480    1.0000 </r>
       <r>   -6.5279    1.0000 </r>
       <r>   -6.3657    1.0000 </r>
       <r>   -6.2539    1.0000 </r>
       <r>   -6.1963    1.0000 </r>
       <r>   -6.1792    1.0000 </r>
       <r>   -6.1719    1.0000 </r>
       <r>   -6.1555    1.0000 </r>
       <r>   -6.1461    1.0000 </r>
       <r>   -1.4500    1.0000 </r>
       <r>   -1.4401    1.0000 </r>
       <r>   -1.1468    1.0000 </r>
       <r>   -1.0917    1.0000 </r>
       <r>   -0.6806    1.0000 </r>
       <r>   -0.6421    1.0000 </r>
       <r>   -0.6019    1.0000 </r>
       <r>   -0.5990    1.0000 </r>
       <r>   -0.5961    1.0000 </r>
       <r>   -0.5906    1.0000 </r>
       <r>   -0.5324    1.0000 </r>
       <r>   -0.5202    1.0000 </r>
       <r>    5.7624    0.0000 </r>
       <r>    5.8790    0.0000 </r>
       <r>    5.9656    0.0000 </r>
       <r>    6.0972    0.0000 </r>
       <r>    6.3266    0.0000 </r>
       <r>    6.6104    0.0000 </r>
       <r>    6.8566    0.0000 </r>
       <r>    6.9012    0.0000 </r>
      </set>
      <set comment="kpoint 15">
       <r>  -19.7376    1.0000 </r>
       <r>  -19.7288    1.0000 </r>
       <r>  -19.7134    1.0000 </r>
       <r>  -19.7046    1.0000 </r>
       <r>  -12.5793    1.0000 </r>
       <r>  -12.5734    1.0000 </r>
       <r>  -12.5663    1.0000 </r>
       <r>  -12.5601    1.0000 </r>
       <r>   -6.8235    1.0000 </r>
       <r>   -6.8213    1.0000 </r>
       <r>   -6.7158    1.0000 </r>
       <r>   -6.7137    1.0000 </r>
       <r>   -6.3905    1.0000 </r>
       <r>   -6.3883    1.0000 </r>
       <r>   -6.2584    1.0000 </r>
       <r>   -6.2564    1.0000 </r>
       <r>   -6.1897    1.0000 </r>
       <r>   -6.1810    1.0000 </r>
       <r>   -6.1540    1.0000 </r>
       <r>   -6.1453    1.0000 </r>
       <r>   -1.3009    1.0000 </r>
       <r>   -1.2996    1.0000 </r>
       <r>   -1.2724    1.0000 </r>
       <r>   -1.2701    1.0000 </r>
       <r>   -0.6645    1.0000 </r>
       <r>   -0.6627    1.0000 </r>
       <r>   -0.5888    1.0000 </r>
       <r>   -0.5868    1.0000 </r>
       <r>   -0.5717    1.0000 </r>
       <r>   -0.5653    1.0000 </r>
       <r>   -0.5605    1.0000 </r>
       <r>   -0.5542    1.0000 </r>
       <r>    5.7923    0.0000 </r>
       <r>    5.7968    0.0000 </r>
       <r>    6.0720    0.0000 </r>
       <r>    6.0792    0.0000 </r>
       <r>    6.5759    0.0000 </r>
       <r>    6.5835    0.0000 </r>
       <r>    6.9383    0.0000 </r>
       <r>    6.9463    0.0000 </r>
      </set>
      <set comment="kpoint 16">
       <r>  -19.7895    1.0000 </r>
       <r>  -19.7164    1.0000 </r>
       <r>  -19.7163    1.0000 </r>
       <r>  -19.6470    1.0000 </r>
       <r>  -12.5571    1.0000 </r>
       <r>  -12.5440    1.0000 </r>
       <r>  -12.5428    1.0000 </r>
       <r>  -12.4606    1.0000 </r>
       <r>   -7.0129    1.0000 </r>
       <r>   -7.0129    1.0000 </r>
       <r>   -6.6681    1.0000 </r>
       <r>   -6.6679    1.0000 </r>
       <r>   -6.5159    1.0000 </r>
       <r>   -6.5157    1.0000 </r>
       <r>   -6.3499    1.0000 </r>
       <r>   -6.2812    1.0000 </r>
       <r>   -6.2811    1.0000 </r>
       <r>   -6.2534    1.0000 </r>
       <r>   -6.2534    1.0000 </r>
       <r>   -6.1528    1.0000 </r>
       <r>   -1.0212    1.0000 </r>
       <r>   -1.0204    1.0000 </r>
       <r>   -0.8799    1.0000 </r>
       <r>   -0.8798    1.0000 </r>
       <r>   -0.6854    1.0000 </r>
       <r>   -0.6820    1.0000 </r>
       <r>   -0.5863    1.0000 </r>
       <r>   -0.5854    1.0000 </r>
       <r>   -0.5603    1.0000 </r>
       <r>   -0.5301    1.0000 </r>
       <r>   -0.4154    1.0000 </r>
       <r>   -0.4153    1.0000 </r>
       <r>    5.0350    0.0000 </r>
       <r>    5.0796    0.0000 </r>
       <r>    5.2501    0.0000 </r>
       <r>    5.8249    0.0000 </r>
       <r>    5.8431    0.0000 </r>
       <r>    6.1128    0.0000 </r>
       <r>    6.1131    0.0000 </r>
       <r>    6.6331    0.0000 </r>
      </set>
      <set comment="kpoint 17">
       <r>  -19.7841    1.0000 </r>
       <r>  -19.7434    1.0000 </r>
       <r>  -19.6898    1.0000 </r>
       <r>  -19.6519    1.0000 </r>
       <r>  -12.5596    1.0000 </r>
       <r>  -12.5540    1.0000 </r>
       <r>  -12.5214    1.0000 </r>
       <r>  -12.4698    1.0000 </r>
       <r>   -6.9879    1.0000 </r>
       <r>   -6.9668    1.0000 </r>
       <r>   -6.8043    1.0000 </r>
       <r>   -6.6759    1.0000 </r>
       <r>   -6.5256    1.0000 </r>
       <r>   -6.4053    1.0000 </r>
       <r>   -6.3544    1.0000 </r>
       <r>   -6.3123    1.0000 </r>
       <r>   -6.2783    1.0000 </r>
       <r>   -6.2771    1.0000 </r>
       <r>   -6.2171    1.0000 </r>
       <r>   -6.1605    1.0000 </r>
       <r>   -1.0481    1.0000 </r>
       <r>   -0.9230    1.0000 </r>
       <r>   -0.9105    1.0000 </r>
       <r>   -0.8665    1.0000 </r>
       <r>   -0.7644    1.0000 </r>
       <r>   -0.5933    1.0000 </r>
       <r>   -0.5924    1.0000 </r>
       <r>   -0.5796    1.0000 </r>
       <r>   -0.5588    1.0000 </r>
       <r>   -0.5531    1.0000 </r>
       <r>   -0.4423    1.0000 </r>
       <r>   -0.4400    1.0000 </r>
       <r>    5.2001    0.0000 </r>
       <r>    5.2284    0.0000 </r>
       <r>    5.3320    0.0000 </r>
       <r>    5.8674    0.0000 </r>
       <r>    5.8812    0.0000 </r>
       <r>    5.9453    0.0000 </r>
       <r>    6.1430    0.0000 </r>
       <r>    6.2118    0.0000 </r>
      </set>
      <set comment="kpoint 18">
       <r>  -19.7841    1.0000 </r>
       <r>  -19.7434    1.0000 </r>
       <r>  -19.6898    1.0000 </r>
       <r>  -19.6519    1.0000 </r>
       <r>  -12.5596    1.0000 </r>
       <r>  -12.5540    1.0000 </r>
       <r>  -12.5214    1.0000 </r>
       <r>  -12.4698    1.0000 </r>
       <r>   -6.9879    1.0000 </r>
       <r>   -6.9668    1.0000 </r>
       <r>   -6.8043    1.0000 </r>
       <r>   -6.6759    1.0000 </r>
       <r>   -6.5256    1.0000 </r>
       <r>   -6.4053    1.0000 </r>
       <r>   -6.3544    1.0000 </r>
       <r>   -6.3123    1.0000 </r>
       <r>   -6.2783    1.0000 </r>
       <r>   -6.2772    1.0000 </r>
       <r>   -6.2171    1.0000 </r>
       <r>   -6.1605    1.0000 </r>
       <r>   -1.0481    1.0000 </r>
       <r>   -0.9231    1.0000 </r>
       <r>   -0.9104    1.0000 </r>
       <r>   -0.8665    1.0000 </r>
       <r>   -0.7644    1.0000 </r>
       <r>   -0.5933    1.0000 </r>
       <r>   -0.5924    1.0000 </r>
       <r>   -0.5795    1.0000 </r>
       <r>   -0.5588    1.0000 </r>
       <r>   -0.5531    1.0000 </r>
       <r>   -0.4423    1.0000 </r>
       <r>   -0.4400    1.0000 </r>
       <r>    5.2001    0.0000 </r>
       <r>    5.2284    0.0000 </r>
       <r>    5.3320    0.0000 </r>
       <r>    5.8674    0.0000 </r>
       <r>    5.8812    0.0000 </r>
       <r>    5.9453    0.0000 </r>
       <r>    6.1430    0.0000 </r>
       <r>    6.2118    0.0000 </r>
      </set>
      <set comment="kpoint 19">
       <r>  -19.7719    1.0000 </r>
       <r>  -19.7632    1.0000 </r>
       <r>  -19.6715    1.0000 </r>
       <r>  -19.6626    1.0000 </r>
       <r>  -12.5618    1.0000 </r>
       <r>  -12.5563    1.0000 </r>
       <r>  -12.4968    1.0000 </r>
       <r>  -12.4902    1.0000 </r>
       <r>   -6.9196    1.0000 </r>
       <r>   -6.9116    1.0000 </r>
       <r>   -6.8463    1.0000 </r>
       <r>   -6.8380    1.0000 </r>
       <r>   -6.4037    1.0000 </r>
       <r>   -6.3954    1.0000 </r>
       <r>   -6.3643    1.0000 </r>
       <r>   -6.3639    1.0000 </r>
       <r>   -6.2784    1.0000 </r>
       <r>   -6.2784    1.0000 </r>
       <r>   -6.1877    1.0000 </r>
       <r>   -6.1789    1.0000 </r>
       <r>   -1.0043    1.0000 </r>
       <r>   -0.9996    1.0000 </r>
       <r>   -0.8291    1.0000 </r>
       <r>   -0.8249    1.0000 </r>
       <r>   -0.7474    1.0000 </r>
       <r>   -0.7435    1.0000 </r>
       <r>   -0.5629    1.0000 </r>
       <r>   -0.5576    1.0000 </r>
       <r>   -0.5103    1.0000 </r>
       <r>   -0.5022    1.0000 </r>
       <r>   -0.5011    1.0000 </r>
       <r>   -0.4991    1.0000 </r>
       <r>    5.5558    0.0000 </r>
       <r>    5.5643    0.0000 </r>
       <r>    5.6370    0.0000 </r>
       <r>    5.6462    0.0000 </r>
       <r>    5.6538    0.0000 </r>
       <r>    5.6627    0.0000 </r>
       <r>    6.0096    0.0000 </r>
       <r>    6.0179    0.0000 </r>
      </set>
      <set comment="kpoint 20">
       <r>  -19.7823    1.0000 </r>
       <r>  -19.7158    1.0000 </r>
       <r>  -19.7157    1.0000 </r>
       <r>  -19.6535    1.0000 </r>
       <r>  -12.5594    1.0000 </r>
       <r>  -12.5510    1.0000 </r>
       <r>  -12.5493    1.0000 </r>
       <r>  -12.4726    1.0000 </r>
       <r>   -6.9803    1.0000 </r>
       <r>   -6.9532    1.0000 </r>
       <r>   -6.7304    1.0000 </r>
       <r>   -6.7302    1.0000 </r>
       <r>   -6.4173    1.0000 </r>
       <r>   -6.4171    1.0000 </r>
       <r>   -6.3554    1.0000 </r>
       <r>   -6.3215    1.0000 </r>
       <r>   -6.2771    1.0000 </r>
       <r>   -6.2533    1.0000 </r>
       <r>   -6.2531    1.0000 </r>
       <r>   -6.1629    1.0000 </r>
       <r>   -1.1165    1.0000 </r>
       <r>   -1.1161    1.0000 </r>
       <r>   -0.9337    1.0000 </r>
       <r>   -0.8623    1.0000 </r>
       <r>   -0.6951    1.0000 </r>
       <r>   -0.6940    1.0000 </r>
       <r>   -0.6096    1.0000 </r>
       <r>   -0.5590    1.0000 </r>
       <r>   -0.5557    1.0000 </r>
       <r>   -0.5515    1.0000 </r>
       <r>   -0.4494    1.0000 </r>
       <r>   -0.4474    1.0000 </r>
       <r>    5.2488    0.0000 </r>
       <r>    5.2733    0.0000 </r>
       <r>    5.3566    0.0000 </r>
       <r>    5.8953    0.0000 </r>
       <r>    5.9766    0.0000 </r>
       <r>    6.1490    0.0000 </r>
       <r>    6.1494    0.0000 </r>
       <r>    6.6485    0.0000 </r>
      </set>
      <set comment="kpoint 21">
       <r>  -19.7823    1.0000 </r>
       <r>  -19.7158    1.0000 </r>
       <r>  -19.7157    1.0000 </r>
       <r>  -19.6535    1.0000 </r>
       <r>  -12.5594    1.0000 </r>
       <r>  -12.5510    1.0000 </r>
       <r>  -12.5493    1.0000 </r>
       <r>  -12.4726    1.0000 </r>
       <r>   -6.9803    1.0000 </r>
       <r>   -6.9532    1.0000 </r>
       <r>   -6.7304    1.0000 </r>
       <r>   -6.7302    1.0000 </r>
       <r>   -6.4173    1.0000 </r>
       <r>   -6.4171    1.0000 </r>
       <r>   -6.3554    1.0000 </r>
       <r>   -6.3215    1.0000 </r>
       <r>   -6.2771    1.0000 </r>
       <r>   -6.2533    1.0000 </r>
       <r>   -6.2531    1.0000 </r>
       <r>   -6.1629    1.0000 </r>
       <r>   -1.1165    1.0000 </r>
       <r>   -1.1161    1.0000 </r>
       <r>   -0.9337    1.0000 </r>
       <r>   -0.8623    1.0000 </r>
       <r>   -0.6951    1.0000 </r>
       <r>   -0.6940    1.0000 </r>
       <r>   -0.6096    1.0000 </r>
       <r>   -0.5590    1.0000 </r>
       <r>   -0.5557    1.0000 </r>
       <r>   -0.5515    1.0000 </r>
       <r>   -0.4494    1.0000 </r>
       <r>   -0.4474    1.0000 </r>
       <r>    5.2488    0.0000 </r>
       <r>    5.2733    0.0000 </r>
       <r>    5.3566    0.0000 </r>
       <r>    5.8953    0.0000 </r>
       <r>    5.9766    0.0000 </r>
       <r>    6.1490    0.0000 </r>
       <r>    6.1494    0.0000 </r>
       <r>    6.6485    0.0000 </r>
      </set>
      <set comment="kpoint 22">
       <r>  -19.7773    1.0000 </r>
       <r>  -19.7402    1.0000 </r>
       <r>  -19.6920    1.0000 </r>
       <r>  -19.6579    1.0000 </r>
       <r>  -12.5633    1.0000 </r>
       <r>  -12.5576    1.0000 </r>
       <r>  -12.5304    1.0000 </r>
       <r>  -12.4814    1.0000 </r>
       <r>   -6.9797    1.0000 </r>
       <r>   -6.8866    1.0000 </r>
       <r>   -6.8437    1.0000 </r>
       <r>   -6.6088    1.0000 </r>
       <r>   -6.5765    1.0000 </r>
       <r>   -6.4060    1.0000 </r>
       <r>   -6.3164    1.0000 </r>
       <r>   -6.3092    1.0000 </r>
       <r>   -6.2751    1.0000 </r>
       <r>   -6.2605    1.0000 </r>
       <r>   -6.2201    1.0000 </r>
       <r>   -6.1697    1.0000 </r>
       <r>   -1.1176    1.0000 </r>
       <r>   -1.0273    1.0000 </r>
       <r>   -0.9614    1.0000 </r>
       <r>   -0.8719    1.0000 </r>
       <r>   -0.7803    1.0000 </r>
       <r>   -0.6961    1.0000 </r>
       <r>   -0.5960    1.0000 </r>
       <r>   -0.5530    1.0000 </r>
       <r>   -0.5440    1.0000 </r>
       <r>   -0.5345    1.0000 </r>
       <r>   -0.4704    1.0000 </r>
       <r>   -0.4453    1.0000 </r>
       <r>    5.2808    0.0000 </r>
       <r>    5.4126    0.0000 </r>
       <r>    5.5589    0.0000 </r>
       <r>    5.8241    0.0000 </r>
       <r>    5.9694    0.0000 </r>
       <r>    6.0612    0.0000 </r>
       <r>    6.2272    0.0000 </r>
       <r>    6.2312    0.0000 </r>
      </set>
      <set comment="kpoint 23">
       <r>  -19.7773    1.0000 </r>
       <r>  -19.7402    1.0000 </r>
       <r>  -19.6920    1.0000 </r>
       <r>  -19.6579    1.0000 </r>
       <r>  -12.5632    1.0000 </r>
       <r>  -12.5576    1.0000 </r>
       <r>  -12.5304    1.0000 </r>
       <r>  -12.4814    1.0000 </r>
       <r>   -6.9797    1.0000 </r>
       <r>   -6.8866    1.0000 </r>
       <r>   -6.8437    1.0000 </r>
       <r>   -6.6088    1.0000 </r>
       <r>   -6.5765    1.0000 </r>
       <r>   -6.4060    1.0000 </r>
       <r>   -6.3163    1.0000 </r>
       <r>   -6.3093    1.0000 </r>
       <r>   -6.2751    1.0000 </r>
       <r>   -6.2605    1.0000 </r>
       <r>   -6.2201    1.0000 </r>
       <r>   -6.1697    1.0000 </r>
       <r>   -1.1176    1.0000 </r>
       <r>   -1.0273    1.0000 </r>
       <r>   -0.9614    1.0000 </r>
       <r>   -0.8719    1.0000 </r>
       <r>   -0.7803    1.0000 </r>
       <r>   -0.6961    1.0000 </r>
       <r>   -0.5960    1.0000 </r>
       <r>   -0.5529    1.0000 </r>
       <r>   -0.5440    1.0000 </r>
       <r>   -0.5345    1.0000 </r>
       <r>   -0.4704    1.0000 </r>
       <r>   -0.4453    1.0000 </r>
       <r>    5.2808    0.0000 </r>
       <r>    5.4126    0.0000 </r>
       <r>    5.5589    0.0000 </r>
       <r>    5.8241    0.0000 </r>
       <r>    5.9694    0.0000 </r>
       <r>    6.0612    0.0000 </r>
       <r>    6.2271    0.0000 </r>
       <r>    6.2312    0.0000 </r>
      </set>
      <set comment="kpoint 24">
       <r>  -19.7773    1.0000 </r>
       <r>  -19.7402    1.0000 </r>
       <r>  -19.6920    1.0000 </r>
       <r>  -19.6579    1.0000 </r>
       <r>  -12.5633    1.0000 </r>
       <r>  -12.5575    1.0000 </r>
       <r>  -12.5304    1.0000 </r>
       <r>  -12.4814    1.0000 </r>
       <r>   -6.9797    1.0000 </r>
       <r>   -6.8867    1.0000 </r>
       <r>   -6.8436    1.0000 </r>
       <r>   -6.6088    1.0000 </r>
       <r>   -6.5765    1.0000 </r>
       <r>   -6.4060    1.0000 </r>
       <r>   -6.3164    1.0000 </r>
       <r>   -6.3093    1.0000 </r>
       <r>   -6.2751    1.0000 </r>
       <r>   -6.2604    1.0000 </r>
       <r>   -6.2201    1.0000 </r>
       <r>   -6.1697    1.0000 </r>
       <r>   -1.1176    1.0000 </r>
       <r>   -1.0273    1.0000 </r>
       <r>   -0.9615    1.0000 </r>
       <r>   -0.8719    1.0000 </r>
       <r>   -0.7803    1.0000 </r>
       <r>   -0.6961    1.0000 </r>
       <r>   -0.5960    1.0000 </r>
       <r>   -0.5530    1.0000 </r>
       <r>   -0.5441    1.0000 </r>
       <r>   -0.5344    1.0000 </r>
       <r>   -0.4705    1.0000 </r>
       <r>   -0.4452    1.0000 </r>
       <r>    5.2808    0.0000 </r>
       <r>    5.4126    0.0000 </r>
       <r>    5.5589    0.0000 </r>
       <r>    5.8240    0.0000 </r>
       <r>    5.9694    0.0000 </r>
       <r>    6.0612    0.0000 </r>
       <r>    6.2271    0.0000 </r>
       <r>    6.2312    0.0000 </r>
      </set>
      <set comment="kpoint 25">
       <r>  -19.7773    1.0000 </r>
       <r>  -19.7402    1.0000 </r>
       <r>  -19.6920    1.0000 </r>
       <r>  -19.6579    1.0000 </r>
       <r>  -12.5633    1.0000 </r>
       <r>  -12.5575    1.0000 </r>
       <r>  -12.5304    1.0000 </r>
       <r>  -12.4814    1.0000 </r>
       <r>   -6.9797    1.0000 </r>
       <r>   -6.8867    1.0000 </r>
       <r>   -6.8436    1.0000 </r>
       <r>   -6.6088    1.0000 </r>
       <r>   -6.5765    1.0000 </r>
       <r>   -6.4060    1.0000 </r>
       <r>   -6.3163    1.0000 </r>
       <r>   -6.3094    1.0000 </r>
       <r>   -6.2751    1.0000 </r>
       <r>   -6.2604    1.0000 </r>
       <r>   -6.2201    1.0000 </r>
       <r>   -6.1697    1.0000 </r>
       <r>   -1.1176    1.0000 </r>
       <r>   -1.0273    1.0000 </r>
       <r>   -0.9615    1.0000 </r>
       <r>   -0.8719    1.0000 </r>
       <r>   -0.7803    1.0000 </r>
       <r>   -0.6961    1.0000 </r>
       <r>   -0.5960    1.0000 </r>
       <r>   -0.5529    1.0000 </r>
       <r>   -0.5442    1.0000 </r>
       <r>   -0.5344    1.0000 </r>
       <r>   -0.4705    1.0000 </r>
       <r>   -0.4452    1.0000 </r>
       <r>    5.2808    0.0000 </r>
       <r>    5.4126    0.0000 </r>
       <r>    5.5589    0.0000 </r>
       <r>    5.8240    0.0000 </r>
       <r>    5.9694    0.0000 </r>
       <r>    6.0612    0.0000 </r>
       <r>    6.2272    0.0000 </r>
       <r>    6.2311    0.0000 </r>
      </set>
      <set comment="kpoint 26">
       <r>  -19.7665    1.0000 </r>
       <r>  -19.7578    1.0000 </r>
       <r>  -19.6759    1.0000 </r>
       <r>  -19.6671    1.0000 </r>
       <r>  -12.5651    1.0000 </r>
       <r>  -12.5596    1.0000 </r>
       <r>  -12.5073    1.0000 </r>
       <r>  -12.5008    1.0000 </r>
       <r>   -6.9333    1.0000 </r>
       <r>   -6.9317    1.0000 </r>
       <r>   -6.7486    1.0000 </r>
       <r>   -6.7467    1.0000 </r>
       <r>   -6.4974    1.0000 </r>
       <r>   -6.4955    1.0000 </r>
       <r>   -6.3113    1.0000 </r>
       <r>   -6.3027    1.0000 </r>
       <r>   -6.2539    1.0000 </r>
       <r>   -6.2521    1.0000 </r>
       <r>   -6.1942    1.0000 </r>
       <r>   -6.1855    1.0000 </r>
       <r>   -1.0504    1.0000 </r>
       <r>   -1.0474    1.0000 </r>
       <r>   -0.8681    1.0000 </r>
       <r>   -0.8680    1.0000 </r>
       <r>   -0.8443    1.0000 </r>
       <r>   -0.8412    1.0000 </r>
       <r>   -0.5432    1.0000 </r>
       <r>   -0.5383    1.0000 </r>
       <r>   -0.5152    1.0000 </r>
       <r>   -0.5120    1.0000 </r>
       <r>   -0.4910    1.0000 </r>
       <r>   -0.4863    1.0000 </r>
       <r>    5.4812    0.0000 </r>
       <r>    5.4820    0.0000 </r>
       <r>    5.7646    0.0000 </r>
       <r>    5.7748    0.0000 </r>
       <r>    6.0395    0.0000 </r>
       <r>    6.0415    0.0000 </r>
       <r>    6.1101    0.0000 </r>
       <r>    6.1188    0.0000 </r>
      </set>
      <set comment="kpoint 27">
       <r>  -19.7665    1.0000 </r>
       <r>  -19.7578    1.0000 </r>
       <r>  -19.6759    1.0000 </r>
       <r>  -19.6671    1.0000 </r>
       <r>  -12.5651    1.0000 </r>
       <r>  -12.5596    1.0000 </r>
       <r>  -12.5073    1.0000 </r>
       <r>  -12.5008    1.0000 </r>
       <r>   -6.9333    1.0000 </r>
       <r>   -6.9317    1.0000 </r>
       <r>   -6.7486    1.0000 </r>
       <r>   -6.7467    1.0000 </r>
       <r>   -6.4974    1.0000 </r>
       <r>   -6.4955    1.0000 </r>
       <r>   -6.3113    1.0000 </r>
       <r>   -6.3027    1.0000 </r>
       <r>   -6.2539    1.0000 </r>
       <r>   -6.2521    1.0000 </r>
       <r>   -6.1942    1.0000 </r>
       <r>   -6.1855    1.0000 </r>
       <r>   -1.0504    1.0000 </r>
       <r>   -1.0474    1.0000 </r>
       <r>   -0.8681    1.0000 </r>
       <r>   -0.8680    1.0000 </r>
       <r>   -0.8443    1.0000 </r>
       <r>   -0.8412    1.0000 </r>
       <r>   -0.5432    1.0000 </r>
[...]
       <r>   -0.8811    1.0000 </r>
       <r>   -0.8808    1.0000 </r>
       <r>   -0.8776    1.0000 </r>
       <r>   -0.8116    1.0000 </r>
       <r>   -0.7540    1.0000 </r>
       <r>   -0.5669    1.0000 </r>
       <r>   -0.5554    1.0000 </r>
       <r>   -0.4671    1.0000 </r>
       <r>    5.6518    0.0000 </r>
       <r>    5.7782    0.0000 </r>
       <r>    5.8212    0.0000 </r>
       <r>    5.8442    0.0000 </r>
       <r>    6.4985    0.0000 </r>
       <r>    6.5349    0.0000 </r>
       <r>    6.6112    0.0000 </r>
       <r>    6.9398    0.0000 </r>
      </set>
      <set comment="kpoint 141">
       <r>  -19.6706    1.0000 </r>
       <r>  -19.6583    1.0000 </r>
       <r>  -19.6494    1.0000 </r>
       <r>  -19.6383    1.0000 </r>
       <r>  -12.5017    1.0000 </r>
       <r>  -12.4796    1.0000 </r>
       <r>  -12.4635    1.0000 </r>
       <r>  -12.4571    1.0000 </r>
       <r>   -7.0126    1.0000 </r>
       <r>   -7.0103    1.0000 </r>
       <r>   -7.0083    1.0000 </r>
       <r>   -6.9614    1.0000 </r>
       <r>   -6.9310    1.0000 </r>
       <r>   -6.9278    1.0000 </r>
       <r>   -6.7916    1.0000 </r>
       <r>   -6.6695    1.0000 </r>
       <r>   -6.4301    1.0000 </r>
       <r>   -6.2925    1.0000 </r>
       <r>   -6.1512    1.0000 </r>
       <r>   -6.0897    1.0000 </r>
       <r>   -1.0996    1.0000 </r>
       <r>   -1.0935    1.0000 </r>
       <r>   -1.0912    1.0000 </r>
       <r>   -0.9301    1.0000 </r>
       <r>   -0.8811    1.0000 </r>
       <r>   -0.8808    1.0000 </r>
       <r>   -0.8775    1.0000 </r>
       <r>   -0.8116    1.0000 </r>
       <r>   -0.7540    1.0000 </r>
       <r>   -0.5674    1.0000 </r>
       <r>   -0.5549    1.0000 </r>
       <r>   -0.4671    1.0000 </r>
       <r>    5.6518    0.0000 </r>
       <r>    5.7782    0.0000 </r>
       <r>    5.8212    0.0000 </r>
       <r>    5.8442    0.0000 </r>
       <r>    6.4985    0.0000 </r>
       <r>    6.5349    0.0000 </r>
       <r>    6.6112    0.0000 </r>
       <r>    6.9398    0.0000 </r>
      </set>
      <set comment="kpoint 142">
       <r>  -19.6696    1.0000 </r>
       <r>  -19.6608    1.0000 </r>
       <r>  -19.6476    1.0000 </r>
       <r>  -19.6387    1.0000 </r>
       <r>  -12.4946    1.0000 </r>
       <r>  -12.4891    1.0000 </r>
       <r>  -12.4621    1.0000 </r>
       <r>  -12.4562    1.0000 </r>
       <r>   -6.9797    1.0000 </r>
       <r>   -6.9713    1.0000 </r>
       <r>   -6.9706    1.0000 </r>
       <r>   -6.9620    1.0000 </r>
       <r>   -6.9278    1.0000 </r>
       <r>   -6.9265    1.0000 </r>
       <r>   -6.8381    1.0000 </r>
       <r>   -6.8368    1.0000 </r>
       <r>   -6.2718    1.0000 </r>
       <r>   -6.2712    1.0000 </r>
       <r>   -6.1612    1.0000 </r>
       <r>   -6.1606    1.0000 </r>
       <r>   -0.9950    1.0000 </r>
       <r>   -0.9912    1.0000 </r>
       <r>   -0.9876    1.0000 </r>
       <r>   -0.9838    1.0000 </r>
       <r>   -0.9770    1.0000 </r>
       <r>   -0.9768    1.0000 </r>
       <r>   -0.8511    1.0000 </r>
       <r>   -0.8507    1.0000 </r>
       <r>   -0.6835    1.0000 </r>
       <r>   -0.6811    1.0000 </r>
       <r>   -0.5303    1.0000 </r>
       <r>   -0.5267    1.0000 </r>
       <r>    5.9752    0.0000 </r>
       <r>    5.9780    0.0000 </r>
       <r>    6.1247    0.0000 </r>
       <r>    6.1252    0.0000 </r>
       <r>    6.2251    0.0000 </r>
       <r>    6.2268    0.0000 </r>
       <r>    6.3069    0.0000 </r>
       <r>    6.3083    0.0000 </r>
      </set>
     </set>
    </set>
   </array>
  </eigenvalues>
  <separator name="orbital magnetization" >
   <v name="MAGDIPOLOUT">      0.00000000      0.00000000      0.00000000</v>
  </separator>
  <dos>
   <i name="efermi">     -0.28514132 </i>
   <total>
    <array>
     <dimension dim="1">gridpoints</dimension>
     <dimension dim="2">spin</dimension>
     <field>energy</field>
     <field>total</field>
     <field>integrated</field>
     <set>
      <set comment="spin 1">
       <r>   -21.1781     0.0000     0.0000 </r>
       <r>   -21.0768     0.0000     0.0000 </r>
       <r>   -20.9755     0.0000     0.0000 </r>
       <r>   -20.8742     0.0000     0.0000 </r>
       <r>   -20.7729     0.0000     0.0000 </r>
       <r>   -20.6716     0.0000     0.0000 </r>
       <r>   -20.5703     0.0000     0.0000 </r>
       <r>   -20.4691     0.0000     0.0000 </r>
       <r>   -20.3678     0.0000     0.0000 </r>
       <r>   -20.2665     0.0000     0.0000 </r>
       <r>   -20.1652     0.0000     0.0000 </r>
       <r>   -20.0639     0.0000     0.0000 </r>
       <r>   -19.9626     0.0000     0.0000 </r>
       <r>   -19.8613     0.0000     0.0000 </r>
       <r>   -19.7600     4.5733     0.4633 </r>
       <r>   -19.6587    48.1175     5.9529 </r>
       <r>   -19.5574     8.5308     8.0000 </r>
       <r>   -19.4561     0.0000     8.0000 </r>
       <r>   -19.3548     0.0000     8.0000 </r>
       <r>   -19.2535     0.0000     8.0000 </r>
       <r>   -19.1522     0.0000     8.0000 </r>
       <r>   -19.0509     0.0000     8.0000 </r>
       <r>   -18.9496     0.0000     8.0000 </r>
       <r>   -18.8483     0.0000     8.0000 </r>
       <r>   -18.7470     0.0000     8.0000 </r>
       <r>   -18.6457     0.0000     8.0000 </r>
       <r>   -18.5444     0.0000     8.0000 </r>
       <r>   -18.4431     0.0000     8.0000 </r>
       <r>   -18.3418     0.0000     8.0000 </r>
       <r>   -18.2405     0.0000     8.0000 </r>
       <r>   -18.1392     0.0000     8.0000 </r>
       <r>   -18.0379     0.0000     8.0000 </r>
       <r>   -17.9366     0.0000     8.0000 </r>
       <r>   -17.8353     0.0000     8.0000 </r>
       <r>   -17.7340     0.0000     8.0000 </r>
       <r>   -17.6327     0.0000     8.0000 </r>
       <r>   -17.5314     0.0000     8.0000 </r>
       <r>   -17.4301     0.0000     8.0000 </r>
       <r>   -17.3288     0.0000     8.0000 </r>
       <r>   -17.2275     0.0000     8.0000 </r>
       <r>   -17.1262     0.0000     8.0000 </r>
       <r>   -17.0249     0.0000     8.0000 </r>
       <r>   -16.9236     0.0000     8.0000 </r>
       <r>   -16.8223     0.0000     8.0000 </r>
       <r>   -16.7210     0.0000     8.0000 </r>
       <r>   -16.6197     0.0000     8.0000 </r>
       <r>   -16.5184     0.0000     8.0000 </r>
       <r>   -16.4171     0.0000     8.0000 </r>
       <r>   -16.3158     0.0000     8.0000 </r>
       <r>   -16.2145     0.0000     8.0000 </r>
       <r>   -16.1132     0.0000     8.0000 </r>
       <r>   -16.0119     0.0000     8.0000 </r>
       <r>   -15.9106     0.0000     8.0000 </r>
       <r>   -15.8093     0.0000     8.0000 </r>
       <r>   -15.7080     0.0000     8.0000 </r>
       <r>   -15.6067     0.0000     8.0000 </r>
       <r>   -15.5054     0.0000     8.0000 </r>
       <r>   -15.4041     0.0000     8.0000 </r>
       <r>   -15.3028     0.0000     8.0000 </r>
       <r>   -15.2015     0.0000     8.0000 </r>
       <r>   -15.1002     0.0000     8.0000 </r>
       <r>   -14.9989     0.0000     8.0000 </r>
       <r>   -14.8976     0.0000     8.0000 </r>
       <r>   -14.7963     0.0000     8.0000 </r>
       <r>   -14.6950     0.0000     8.0000 </r>
       <r>   -14.5937     0.0000     8.0000 </r>
       <r>   -14.4924     0.0000     8.0000 </r>
       <r>   -14.3911     0.0000     8.0000 </r>
       <r>   -14.2898     0.0000     8.0000 </r>
       <r>   -14.1885     0.0000     8.0000 </r>
       <r>   -14.0872     0.0000     8.0000 </r>
       <r>   -13.9859     0.0000     8.0000 </r>
       <r>   -13.8846     0.0000     8.0000 </r>
       <r>   -13.7833     0.0000     8.0000 </r>
       <r>   -13.6820     0.0000     8.0000 </r>
       <r>   -13.5807     0.0000     8.0000 </r>
       <r>   -13.4794     0.0000     8.0000 </r>
       <r>   -13.3781     0.0000     8.0000 </r>
       <r>   -13.2768     0.0000     8.0000 </r>
       <r>   -13.1755     0.0000     8.0000 </r>
       <r>   -13.0742     0.0000     8.0000 </r>
       <r>   -12.9729     0.0000     8.0000 </r>
       <r>   -12.8716     0.0000     8.0000 </r>
       <r>   -12.7703     0.0000     8.0000 </r>
       <r>   -12.6690     0.0000     8.0000 </r>
       <r>   -12.5677     8.9298     8.9046 </r>
       <r>   -12.4664    37.2559    14.6313 </r>
       <r>   -12.3651     6.6984    16.0000 </r>
       <r>   -12.2638     0.0000    16.0000 </r>
       <r>   -12.1625     0.0000    16.0000 </r>
       <r>   -12.0612     0.0000    16.0000 </r>
       <r>   -11.9599     0.0000    16.0000 </r>
       <r>   -11.8586     0.0000    16.0000 </r>
       <r>   -11.7573     0.0000    16.0000 </r>
       <r>   -11.6560     0.0000    16.0000 </r>
       <r>   -11.5547     0.0000    16.0000 </r>
       <r>   -11.4534     0.0000    16.0000 </r>
       <r>   -11.3521     0.0000    16.0000 </r>
       <r>   -11.2508     0.0000    16.0000 </r>
       <r>   -11.1495     0.0000    16.0000 </r>
       <r>   -11.0482     0.0000    16.0000 </r>
       <r>   -10.9469     0.0000    16.0000 </r>
       <r>   -10.8456     0.0000    16.0000 </r>
       <r>   -10.7443     0.0000    16.0000 </r>
       <r>   -10.6430     0.0000    16.0000 </r>
       <r>   -10.5417     0.0000    16.0000 </r>
       <r>   -10.4404     0.0000    16.0000 </r>
       <r>   -10.3391     0.0000    16.0000 </r>
       <r>   -10.2378     0.0000    16.0000 </r>
       <r>   -10.1365     0.0000    16.0000 </r>
       <r>   -10.0352     0.0000    16.0000 </r>
       <r>    -9.9339     0.0000    16.0000 </r>
       <r>    -9.8326     0.0000    16.0000 </r>
       <r>    -9.7313     0.0000    16.0000 </r>
       <r>    -9.6300     0.0000    16.0000 </r>
       <r>    -9.5287     0.0000    16.0000 </r>
       <r>    -9.4274     0.0000    16.0000 </r>
       <r>    -9.3261     0.0000    16.0000 </r>
       <r>    -9.2248     0.0000    16.0000 </r>
       <r>    -9.1235     0.0000    16.0000 </r>
       <r>    -9.0222     0.0000    16.0000 </r>
       <r>    -8.9209     0.0000    16.0000 </r>
       <r>    -8.8196     0.0000    16.0000 </r>
       <r>    -8.7183     0.0000    16.0000 </r>
       <r>    -8.6170     0.0000    16.0000 </r>
       <r>    -8.5157     0.0000    16.0000 </r>
       <r>    -8.4144     0.0000    16.0000 </r>
       <r>    -8.3131     0.0000    16.0000 </r>
       <r>    -8.2118     0.0000    16.0000 </r>
       <r>    -8.1105     0.0000    16.0000 </r>
       <r>    -8.0092     0.0000    16.0000 </r>
       <r>    -7.9079     0.0000    16.0000 </r>
       <r>    -7.8066     0.0000    16.0000 </r>
       <r>    -7.7053     0.0000    16.0000 </r>
       <r>    -7.6040     0.0000    16.0000 </r>
       <r>    -7.5027     0.0000    16.0000 </r>
       <r>    -7.4014     0.0000    16.0000 </r>
       <r>    -7.3001     0.0000    16.0000 </r>
       <r>    -7.1988     0.0000    16.0000 </r>
       <r>    -7.0975     0.0000    16.0000 </r>
       <r>    -6.9962     2.7951    16.2831 </r>
       <r>    -6.8949    22.5920    18.8457 </r>
       <r>    -6.7936    29.7804    22.6883 </r>
       <r>    -6.6923    20.7299    25.4000 </r>
       <r>    -6.5910    14.7529    27.6802 </r>
       <r>    -6.4897    12.8415    29.4295 </r>
       <r>    -6.3884    17.5743    31.9517 </r>
       <r>    -6.2871    18.7057    34.1806 </r>
       <r>    -6.1858    28.7053    37.8937 </r>
       <r>    -6.0845    13.1056    39.9491 </r>
       <r>    -5.9832     0.0000    40.0000 </r>
       <r>    -5.8819     0.0000    40.0000 </r>
       <r>    -5.7806     0.0000    40.0000 </r>
       <r>    -5.6793     0.0000    40.0000 </r>
       <r>    -5.5780     0.0000    40.0000 </r>
       <r>    -5.4767     0.0000    40.0000 </r>
       <r>    -5.3754     0.0000    40.0000 </r>
       <r>    -5.2741     0.0000    40.0000 </r>
       <r>    -5.1728     0.0000    40.0000 </r>
       <r>    -5.0715     0.0000    40.0000 </r>
       <r>    -4.9702     0.0000    40.0000 </r>
       <r>    -4.8689     0.0000    40.0000 </r>
       <r>    -4.7676     0.0000    40.0000 </r>
       <r>    -4.6663     0.0000    40.0000 </r>
       <r>    -4.5650     0.0000    40.0000 </r>
       <r>    -4.4637     0.0000    40.0000 </r>
       <r>    -4.3624     0.0000    40.0000 </r>
       <r>    -4.2611     0.0000    40.0000 </r>
       <r>    -4.1598     0.0000    40.0000 </r>
       <r>    -4.0585     0.0000    40.0000 </r>
       <r>    -3.9572     0.0000    40.0000 </r>
       <r>    -3.8559     0.0000    40.0000 </r>
       <r>    -3.7546     0.0000    40.0000 </r>
       <r>    -3.6533     0.0000    40.0000 </r>
       <r>    -3.5520     0.0000    40.0000 </r>
       <r>    -3.4507     0.0000    40.0000 </r>
       <r>    -3.3494     0.0000    40.0000 </r>
       <r>    -3.2481     0.0000    40.0000 </r>
       <r>    -3.1468     0.0000    40.0000 </r>
       <r>    -3.0456     0.0000    40.0000 </r>
       <r>    -2.9443     0.0000    40.0000 </r>
       <r>    -2.8430     0.0000    40.0000 </r>
       <r>    -2.7417     0.0000    40.0000 </r>
       <r>    -2.6404     0.0000    40.0000 </r>
       <r>    -2.5391     0.0000    40.0000 </r>
       <r>    -2.4378     0.0000    40.0000 </r>
       <r>    -2.3365     0.0000    40.0000 </r>
       <r>    -2.2352     0.0000    40.0000 </r>
       <r>    -2.1339     0.0000    40.0000 </r>
       <r>    -2.0326     0.0000    40.0000 </r>
       <r>    -1.9313     0.0000    40.0000 </r>
       <r>    -1.8300     0.0000    40.0000 </r>
       <r>    -1.7287     0.0000    40.0000 </r>
       <r>    -1.6274     0.0000    40.0000 </r>
       <r>    -1.5261     0.0587    40.0059 </r>
       <r>    -1.4248     1.8110    40.2192 </r>
       <r>    -1.3235     6.0929    40.8744 </r>
       <r>    -1.2222    10.9324    42.1503 </r>
       <r>    -1.1209    15.0853    43.9710 </r>
       <r>    -1.0196    29.9248    47.6600 </r>
       <r>    -0.9183    16.5965    49.8670 </r>
       <r>    -0.8170    20.4734    52.1454 </r>
       <r>    -0.7157    21.2168    54.6208 </r>
       <r>    -0.6144    21.1301    57.1549 </r>
       <r>    -0.5131    46.0926    62.4407 </r>
       <r>    -0.4118     9.2797    63.9544 </r>
       <r>    -0.3105     0.0000    64.0000 </r>
       <r>    -0.2092     0.0000    64.0000 </r>
       <r>    -0.1079     0.0000    64.0000 </r>
       <r>    -0.0066     0.0000    64.0000 </r>
       <r>     0.0947     0.0000    64.0000 </r>
       <r>     0.1960     0.0000    64.0000 </r>
       <r>     0.2973     0.0000    64.0000 </r>
       <r>     0.3986     0.0000    64.0000 </r>
       <r>     0.4999     0.0000    64.0000 </r>
       <r>     0.6012     0.0000    64.0000 </r>
       <r>     0.7025     0.0000    64.0000 </r>
       <r>     0.8038     0.0000    64.0000 </r>
       <r>     0.9051     0.0000    64.0000 </r>
       <r>     1.0064     0.0000    64.0000 </r>
       <r>     1.1077     0.0000    64.0000 </r>
       <r>     1.2090     0.0000    64.0000 </r>
       <r>     1.3103     0.0000    64.0000 </r>
       <r>     1.4116     0.0000    64.0000 </r>
       <r>     1.5129     0.0000    64.0000 </r>
       <r>     1.6142     0.0000    64.0000 </r>
       <r>     1.7155     0.0000    64.0000 </r>
       <r>     1.8168     0.0000    64.0000 </r>
       <r>     1.9181     0.0000    64.0000 </r>
       <r>     2.0194     0.0000    64.0000 </r>
       <r>     2.1207     0.0000    64.0000 </r>
       <r>     2.2220     0.0000    64.0000 </r>
       <r>     2.3233     0.0000    64.0000 </r>
       <r>     2.4246     0.0000    64.0000 </r>
       <r>     2.5259     0.0000    64.0000 </r>
       <r>     2.6272     0.0000    64.0000 </r>
       <r>     2.7285     0.0000    64.0000 </r>
       <r>     2.8298     0.0000    64.0000 </r>
       <r>     2.9311     0.0000    64.0000 </r>
       <r>     3.0324     0.0000    64.0000 </r>
       <r>     3.1337     0.0000    64.0000 </r>
       <r>     3.2350     0.0000    64.0000 </r>
       <r>     3.3363     0.0000    64.0000 </r>
       <r>     3.4376     0.0000    64.0000 </r>
       <r>     3.5389     0.0000    64.0000 </r>
       <r>     3.6402     0.0000    64.0000 </r>
       <r>     3.7415     0.0000    64.0000 </r>
       <r>     3.8428     0.0000    64.0000 </r>
       <r>     3.9441     0.0000    64.0000 </r>
       <r>     4.0454     0.0000    64.0000 </r>
       <r>     4.1467     0.0000    64.0000 </r>
       <r>     4.2480     0.0000    64.0000 </r>
       <r>     4.3493     0.0000    64.0000 </r>
       <r>     4.4506     0.0000    64.0000 </r>
       <r>     4.5519     0.0000    64.0000 </r>
       <r>     4.6532     0.0000    64.0000 </r>
       <r>     4.7545     0.0000    64.0000 </r>
       <r>     4.8558     0.0705    64.0071 </r>
       <r>     4.9571     0.0000    64.0071 </r>
       <r>     5.0584     0.5641    64.0643 </r>
       <r>     5.1597     0.5990    64.1392 </r>
       <r>     5.2610     1.4124    64.2931 </r>
       <r>     5.3623     0.9279    64.4868 </r>
       <r>     5.4636     1.9230    64.6877 </r>
       <r>     5.5649     1.5217    64.9256 </r>
       <r>     5.6662     3.6109    65.3658 </r>
       <r>     5.7675     3.4600    65.8433 </r>
       <r>     5.8688     6.9494    66.6968 </r>
       <r>     5.9701     7.4076    67.7147 </r>
       <r>     6.0714     8.5725    68.8613 </r>
       <r>     6.1727    11.1555    70.1443 </r>
       <r>     6.2740     7.3455    70.9441 </r>
       <r>     6.3753     7.7747    71.9305 </r>
       <r>     6.4766     7.4138    72.7510 </r>
       <r>     6.5779     7.3192    73.7201 </r>
       <r>     6.6792    10.4961    74.9704 </r>
       <r>     6.7805     5.2912    75.7217 </r>
       <r>     6.8818    10.6617    76.9872 </r>
       <r>     6.9831     7.1160    77.9566 </r>
       <r>     7.0844     3.9450    78.4782 </r>
       <r>     7.1857     3.7255    78.9560 </r>
       <r>     7.2870     1.8957    79.2206 </r>
       <r>     7.3883     1.5685    79.4446 </r>
       <r>     7.4896     1.2060    79.5936 </r>
       <r>     7.5909     2.6060    79.8783 </r>
       <r>     7.6922     0.2821    79.9286 </r>
       <r>     7.7935     0.4420    79.9734 </r>
       <r>     7.8948     0.1410    80.0000 </r>
       <r>     7.9961     0.0000    80.0000 </r>
       <r>     8.0974     0.0000    80.0000 </r>
       <r>     8.1987     0.0000    80.0000 </r>
       <r>     8.3000     0.0000    80.0000 </r>
       <r>     8.4013     0.0000    80.0000 </r>
       <r>     8.5026     0.0000    80.0000 </r>
       <r>     8.6039     0.0000    80.0000 </r>
       <r>     8.7052     0.0000    80.0000 </r>
       <r>     8.8065     0.0000    80.0000 </r>
       <r>     8.9078     0.0000    80.0000 </r>
       <r>     9.0091     0.0000    80.0000 </r>
       <r>     9.1104     0.0000    80.0000 </r>
       <r>     9.2117     0.0000    80.0000 </r>
      </set>
     </set>
    </array>
   </total>
  </dos>
 </calculation>
 <structure name="finalpos" >
  <crystal>
   <varray name="basis" >
    <v>       8.28739668       8.28739668       0.00000000 </v>
    <v>      -4.14369834       4.14369834      -0.00000000 </v>
    <v>       0.00000000       0.00000000       4.14369834 </v>
   </varray>
   <i name="volume">    284.59311253 </i>
   <varray name="rec_basis" >
    <v>       0.06033258       0.06033258      -0.00000000 </v>
    <v>      -0.12066515       0.12066515       0.00000000 </v>
    <v>      -0.00000000      -0.00000000       0.24133031 </v>
   </varray>
  </crystal>
  <varray name="positions" >
   <v>       0.00000000       0.00000000       0.00000000 </v>
   <v>       0.25000000       0.50000000       0.00000000 </v>
   <v>       0.50000000       0.00000000       0.00000000 </v>
   <v>       0.75000000       0.50000000       0.00000000 </v>
   <v>       0.25072764       0.00072764       0.50072764 </v>
   <v>       0.50000000       0.50000000       0.50000000 </v>
   <v>       0.75000000       0.00000000       0.50000000 </v>
   <v>       0.00000000       0.50000000       0.50000000 </v>
  </varray>
 </structure>
</modeling>
