phonopy:
  version: "2.33.3"
  frequency_unit_conversion_factor: 15.633302
  symmetry_tolerance: 1.00000e-05
  configuration:
    force_sets: "READ"
    force_constants: "WRITE"
    fc_format: "HDF5"
    fc_symmetry: ".FALSE."
    include_fc: ".TRUE."
    primitive_axes: "1 0 0 0 1 0 0 0 1"
    dim: "4 0 0 -1 1 0 -2 0 1"

physical_unit:
  atomic_mass: "AMU"
  length: "angstrom"
  force: "eV/angstrom"
  force_constants: "eV/angstrom^2"

space_group:
  type: "Fd-3m"
  number: 227
  Hall_symbol: "F 4d 2 3 -1d"

primitive_matrix:
- [  1.000000000000000,  0.000000000000000,  0.000000000000000 ]
- [  0.000000000000000,  1.000000000000000,  0.000000000000000 ]
- [  0.000000000000000,  0.000000000000000,  1.000000000000000 ]

supercell_matrix:
- [   4,   0,   0 ]
- [  -1,   1,   0 ]
- [  -2,   0,   1 ]

primitive_cell:
  lattice:
  - [     0.000000000000000,     2.721851186500000,     2.721851186500000 ] # a
  - [     2.721851186500000,     0.000000000000000,     2.721851186500000 ] # b
  - [     2.721851186500000,     2.721851186499999,     0.000000000000000 ] # c
  points:
  - symbol: Si # 1
    coordinates: [  0.000000000000000,  0.000000000000000,  1.000000000000000 ]
    mass: 28.085500
  - symbol: Si # 2
    coordinates: [  0.250000000000000,  0.250000000000000,  0.250000000000000 ]
    mass: 28.085500
  reciprocal_lattice: # without 2pi
  - [    -0.183698507280607,     0.183698507280607,     0.183698507280607 ] # a*
  - [     0.183698507280607,    -0.183698507280607,     0.183698507280607 ] # b*
  - [     0.183698507280607,     0.183698507280607,    -0.183698507280607 ] # c*

unit_cell:
  lattice:
  - [     0.000000000000000,     2.721851186500000,     2.721851186500000 ] # a
  - [     2.721851186500000,     0.000000000000000,     2.721851186500000 ] # b
  - [     2.721851186500000,     2.721851186500000,     0.000000000000000 ] # c
  points:
  - symbol: Si # 1
    coordinates: [  0.000000000000000,  0.000000000000000,  1.000000000000000 ]
    mass: 28.085500
    reduced_to: 1
  - symbol: Si # 2
    coordinates: [  0.250000000000000,  0.250000000000000,  0.250000000000000 ]
    mass: 28.085500
    reduced_to: 2

supercell:
  lattice:
  - [    -8.165553559499999,     5.443702373000001,     8.165553559499999 ] # a
  - [     2.721851186500000,     0.000000000000000,     2.721851186500000 ] # b
  - [     2.721851186500000,     2.721851186499999,     0.000000000000000 ] # c
  points:
  - symbol: Si # 1
    coordinates: [  0.000000000000000,  0.000000000000000,  1.000000000000000 ]
    mass: 28.085500
    reduced_to: 1
  - symbol: Si # 2
    coordinates: [  0.250000000000000,  0.250000000000000,  0.500000000000000 ]
    mass: 28.085500
    reduced_to: 1
  - symbol: Si # 3
    coordinates: [  0.500000000000000,  0.500000000000000,  1.000000000000000 ]
    mass: 28.085500
    reduced_to: 1
  - symbol: Si # 4
    coordinates: [  0.750000000000000,  0.750000000000000,  0.500000000000000 ]
    mass: 28.085500
    reduced_to: 1
  - symbol: Si # 5
    coordinates: [  0.062500000000000,  0.312500000000000,  0.375000000000000 ]
    mass: 28.085500
    reduced_to: 5
  - symbol: Si # 6
    coordinates: [  0.312500000000000,  0.562500000000000,  0.875000000000000 ]
    mass: 28.085500
    reduced_to: 5
  - symbol: Si # 7
    coordinates: [  0.562500000000000,  0.812500000000000,  0.375000000000000 ]
    mass: 28.085500
    reduced_to: 5
  - symbol: Si # 8
    coordinates: [  0.812500000000000,  0.062500000000000,  0.875000000000000 ]
    mass: 28.085500
    reduced_to: 5

force_constants:
  format: "compact"
  shape: [ 2, 8 ]
  elements:
  - # (1, 1)
    - [    13.516295462129081,    -0.538323120868720,    -0.538323120868723 ]
    - [    -0.538323120868725,    13.516295462129085,     0.538323120868732 ]
    - [    -0.538323120868724,     0.538323120868719,    13.516295462129072 ]
  - # (1, 2)
    - [    -0.089887420772241,     0.251880309869263,     0.251880309869263 ]
    - [     0.251880309869263,    -0.089887420772242,    -0.251880309869263 ]
    - [     0.251880309869263,    -0.251880309869263,    -0.089887420772242 ]
  - # (1, 3)
    - [     0.052282305568842,     0.034040106074949,     0.034040106074949 ]
    - [     0.034040106074949,     0.052282305568842,    -0.034040106074949 ]
    - [     0.034040106074949,    -0.034040106074949,     0.052282305568842 ]
  - # (1, 4)
    - [    -0.089070115826092,     0.252148836171513,     0.252148836171513 ]
    - [     0.252148836171513,    -0.089070115826093,    -0.252148836171513 ]
    - [     0.252148836171513,    -0.252148836171513,    -0.089070115826092 ]
  - # (1, 5)
    - [   -10.135110469778416,    -2.062899670404546,    -2.062899670404545 ]
    - [    -2.062899670404543,   -10.135110469778411,     2.062899670404536 ]
    - [    -2.062899670404540,     2.062899670404544,   -10.135110469778407 ]
  - # (1, 6)
    - [    -0.097142614499733,     0.067693839151682,     0.067693839151682 ]
    - [     0.067693839151682,    -0.097142614499733,    -0.067693839151682 ]
    - [     0.067693839151682,    -0.067693839151682,    -0.097142614499733 ]
  - # (1, 7)
    - [    -0.155615389418587,    -0.096128605242656,    -0.096128605242656 ]
    - [    -0.096128605242656,    -0.155615389418587,     0.096128605242656 ]
    - [    -0.096128605242656,     0.096128605242656,    -0.155615389418587 ]
  - # (1, 8)
    - [    -3.001750291647934,     2.091589184701470,     2.091589184701469 ]
    - [     2.091589184701471,    -3.001750291647937,    -2.091589184701472 ]
    - [     2.091589184701468,    -2.091589184701466,    -3.001750291647932 ]
  - # (2, 1)
    - [   -10.135110469778413,    -2.062899670404544,    -2.062899670404532 ]
    - [    -2.062899670404547,   -10.135110469778422,     2.062899670404549 ]
    - [    -2.062899670404540,     2.062899670404544,   -10.135110469778413 ]
  - # (2, 2)
    - [    -3.001750291647937,     2.091589184701471,     2.091589184701473 ]
    - [     2.091589184701470,    -3.001750291647935,    -2.091589184701470 ]
    - [     2.091589184701467,    -2.091589184701469,    -3.001750291647934 ]
  - # (2, 3)
    - [    -0.155615389418587,    -0.096128605242657,    -0.096128605242656 ]
    - [    -0.096128605242657,    -0.155615389418587,     0.096128605242657 ]
    - [    -0.096128605242656,     0.096128605242656,    -0.155615389418587 ]
  - # (2, 4)
    - [    -0.097142614499733,     0.067693839151682,     0.067693839151682 ]
    - [     0.067693839151682,    -0.097142614499733,    -0.067693839151682 ]
    - [     0.067693839151682,    -0.067693839151682,    -0.097142614499733 ]
  - # (2, 5)
    - [    13.516295462129085,    -0.538323120868724,    -0.538323120868737 ]
    - [    -0.538323120868720,    13.516295462129087,     0.538323120868721 ]
    - [    -0.538323120868724,     0.538323120868721,    13.516295462129078 ]
  - # (2, 6)
    - [    -0.089070115826093,     0.252148836171513,     0.252148836171513 ]
    - [     0.252148836171513,    -0.089070115826092,    -0.252148836171513 ]
    - [     0.252148836171513,    -0.252148836171513,    -0.089070115826092 ]
  - # (2, 7)
    - [     0.052282305568842,     0.034040106074949,     0.034040106074949 ]
    - [     0.034040106074949,     0.052282305568842,    -0.034040106074949 ]
    - [     0.034040106074949,    -0.034040106074949,     0.052282305568842 ]
  - # (2, 8)
    - [    -0.089887420772242,     0.251880309869264,     0.251880309869263 ]
    - [     0.251880309869263,    -0.089887420772241,    -0.251880309869264 ]
    - [     0.251880309869263,    -0.251880309869264,    -0.089887420772242 ]