<?xml version="1.0" encoding="ISO-8859-1"?>
<modeling>
 <generator>
  <i name="program" type="string">vasp </i>
  <i name="version" type="string">6.4.3  </i>
  <i name="subversion" type="string">19Mar24 (build Jun 20 2024 15:56:09) complex                          parallel </i>
  <i name="platform" type="string">LinuxNV_CrayMPICH </i>
  <i name="date" type="string">2025 01 13 </i>
  <i name="time" type="string">17:50:58 </i>
 </generator>
 <incar>
  <i type="string" name="PREC">Accurate</i>
  <i type="int" name="IBRION">    -1</i>
  <i name="EDIFF">      0.00000001</i>
  <i type="int" name="NSW">     0</i>
  <i name="ENCUT">    500.00000000</i>
  <i type="logical" name="LREAL"> F  </i>
  <i type="int" name="ISMEAR">     0</i>
  <i name="SIGMA">      0.01000000</i>
  <i type="logical" name="LWAVE"> F  </i>
  <i type="logical" name="LCHARG"> F  </i>
 </incar>
 <primitive_cell>
  <structure name="primitive_cell" >
   <crystal>
    <varray name="basis" >
     <v>      -8.16555356       5.44370237       8.16555356 </v>
     <v>       2.72185119       0.00000000       2.72185119 </v>
     <v>       2.72185119       2.72185119       0.00000000 </v>
    </varray>
    <i name="volume">    161.31810740 </i>
    <varray name="rec_basis" >
     <v>      -0.04592463       0.04592463       0.04592463 </v>
     <v>       0.13777388      -0.13777388       0.22962313 </v>
     <v>       0.09184925       0.27554776      -0.09184925 </v>
    </varray>
   </crystal>
   <varray name="positions" >
    <v>       0.99921671       1.00000000       1.00000000 </v>
    <v>       0.25000000       0.25000000       0.50000000 </v>
    <v>       0.50000000       0.50000000       1.00000000 </v>
    <v>       0.75000000       0.75000000       0.50000000 </v>
    <v>       0.06250000       0.31250000       0.37500000 </v>
    <v>       0.31250000       0.56250000       0.87500000 </v>
    <v>       0.56250000       0.81250000       0.37500000 </v>
    <v>       0.81250000       0.06250000       0.87500000 </v>
   </varray>
  </structure>
  <varray name="primitive_index" >
   <v type="int" >        1 </v>
   <v type="int" >        2 </v>
   <v type="int" >        3 </v>
   <v type="int" >        4 </v>
   <v type="int" >        5 </v>
   <v type="int" >        6 </v>
   <v type="int" >        7 </v>
   <v type="int" >        8 </v>
  </varray>
 </primitive_cell>
 <kpoints>
  <generation param="Gamma">
   <v type="int" name="divisions">       3       13       13 </v>
   <v name="usershift">      0.00000000       0.00000000       0.00000000 </v>
   <v name="genvec1">      0.33333333       0.00000000       0.00000000 </v>
   <v name="genvec2">     -0.00000000       0.07692308      -0.00000000 </v>
   <v name="genvec3">     -0.00000000      -0.00000000       0.07692308 </v>
   <v name="shift">      0.00000000       0.00000000       0.00000000 </v>
  </generation>
  <varray name="kpointlist" >
   <v>       0.00000000       0.00000000       0.00000000 </v>
   <v>       0.33333333       0.00000000       0.00000000 </v>
   <v>       0.00000000       0.07692308       0.00000000 </v>
   <v>       0.33333333       0.07692308       0.00000000 </v>
   <v>      -0.33333333       0.07692308       0.00000000 </v>
   <v>       0.00000000       0.15384615       0.00000000 </v>
   <v>       0.33333333       0.15384615       0.00000000 </v>
   <v>      -0.33333333       0.15384615       0.00000000 </v>
   <v>       0.00000000       0.23076923       0.00000000 </v>
   <v>       0.33333333       0.23076923       0.00000000 </v>
   <v>      -0.33333333       0.23076923       0.00000000 </v>
   <v>       0.00000000       0.30769231       0.00000000 </v>
   <v>       0.33333333       0.30769231       0.00000000 </v>
   <v>      -0.33333333       0.30769231       0.00000000 </v>
   <v>       0.00000000       0.38461538       0.00000000 </v>
   <v>       0.33333333       0.38461538       0.00000000 </v>
   <v>      -0.33333333       0.38461538       0.00000000 </v>
   <v>       0.00000000       0.46153846       0.00000000 </v>
   <v>       0.33333333       0.46153846       0.00000000 </v>
   <v>      -0.33333333       0.46153846       0.00000000 </v>
   <v>       0.00000000       0.00000000       0.07692308 </v>
   <v>       0.33333333       0.00000000       0.07692308 </v>
   <v>      -0.33333333       0.00000000       0.07692308 </v>
   <v>       0.00000000       0.15384615       0.07692308 </v>
   <v>       0.33333333       0.15384615       0.07692308 </v>
   <v>       0.00000000       0.23076923       0.07692308 </v>
   <v>       0.33333333       0.23076923       0.07692308 </v>
   <v>      -0.33333333       0.23076923       0.07692308 </v>
   <v>       0.00000000       0.30769231       0.07692308 </v>
   <v>       0.33333333       0.30769231       0.07692308 </v>
   <v>      -0.33333333       0.30769231       0.07692308 </v>
   <v>       0.00000000       0.38461538       0.07692308 </v>
   <v>       0.33333333       0.38461538       0.07692308 </v>
   <v>      -0.33333333       0.38461538       0.07692308 </v>
   <v>       0.00000000       0.46153846       0.07692308 </v>
   <v>       0.33333333       0.46153846       0.07692308 </v>
   <v>      -0.33333333       0.46153846       0.07692308 </v>
   <v>       0.00000000      -0.46153846       0.07692308 </v>
   <v>       0.33333333      -0.46153846       0.07692308 </v>
   <v>      -0.33333333      -0.46153846       0.07692308 </v>
   <v>       0.00000000      -0.38461538       0.07692308 </v>
   <v>       0.33333333      -0.38461538       0.07692308 </v>
   <v>      -0.33333333      -0.38461538       0.07692308 </v>
   <v>       0.00000000      -0.30769231       0.07692308 </v>
   <v>       0.33333333      -0.30769231       0.07692308 </v>
   <v>      -0.33333333      -0.30769231       0.07692308 </v>
   <v>       0.00000000      -0.23076923       0.07692308 </v>
   <v>       0.33333333      -0.23076923       0.07692308 </v>
   <v>      -0.33333333      -0.23076923       0.07692308 </v>
   <v>       0.00000000      -0.15384615       0.07692308 </v>
   <v>       0.33333333      -0.15384615       0.07692308 </v>
   <v>      -0.33333333      -0.15384615       0.07692308 </v>
   <v>       0.00000000      -0.07692308       0.07692308 </v>
   <v>       0.33333333      -0.07692308       0.07692308 </v>
   <v>      -0.33333333      -0.07692308       0.07692308 </v>
   <v>       0.00000000       0.00000000       0.15384615 </v>
   <v>       0.33333333       0.00000000       0.15384615 </v>
   <v>      -0.33333333       0.00000000       0.15384615 </v>
   <v>       0.00000000       0.30769231       0.15384615 </v>
   <v>       0.33333333       0.30769231       0.15384615 </v>
   <v>       0.00000000       0.38461538       0.15384615 </v>
   <v>       0.33333333       0.38461538       0.15384615 </v>
   <v>      -0.33333333       0.38461538       0.15384615 </v>
   <v>       0.00000000       0.46153846       0.15384615 </v>
   <v>       0.33333333       0.46153846       0.15384615 </v>
   <v>      -0.33333333       0.46153846       0.15384615 </v>
   <v>       0.00000000      -0.46153846       0.15384615 </v>
   <v>       0.33333333      -0.46153846       0.15384615 </v>
   <v>      -0.33333333      -0.46153846       0.15384615 </v>
   <v>       0.00000000      -0.38461538       0.15384615 </v>
   <v>       0.33333333      -0.38461538       0.15384615 </v>
   <v>      -0.33333333      -0.38461538       0.15384615 </v>
   <v>       0.00000000      -0.30769231       0.15384615 </v>
   <v>       0.33333333      -0.30769231       0.15384615 </v>
   <v>      -0.33333333      -0.30769231       0.15384615 </v>
   <v>       0.00000000      -0.23076923       0.15384615 </v>
   <v>       0.33333333      -0.23076923       0.15384615 </v>
   <v>      -0.33333333      -0.23076923       0.15384615 </v>
   <v>       0.00000000      -0.15384615       0.15384615 </v>
   <v>       0.33333333      -0.15384615       0.15384615 </v>
   <v>      -0.33333333      -0.15384615       0.15384615 </v>
   <v>       0.00000000      -0.07692308       0.15384615 </v>
   <v>       0.33333333      -0.07692308       0.15384615 </v>
   <v>      -0.33333333      -0.07692308       0.15384615 </v>
   <v>       0.00000000       0.00000000       0.23076923 </v>
   <v>       0.33333333       0.00000000       0.23076923 </v>
   <v>      -0.33333333       0.00000000       0.23076923 </v>
   <v>       0.00000000       0.46153846       0.23076923 </v>
   <v>       0.33333333       0.46153846       0.23076923 </v>
   <v>       0.00000000      -0.46153846       0.23076923 </v>
   <v>       0.33333333      -0.46153846       0.23076923 </v>
   <v>      -0.33333333      -0.46153846       0.23076923 </v>
   <v>       0.00000000      -0.38461538       0.23076923 </v>
   <v>       0.33333333      -0.38461538       0.23076923 </v>
   <v>      -0.33333333      -0.38461538       0.23076923 </v>
   <v>       0.00000000      -0.30769231       0.23076923 </v>
   <v>       0.33333333      -0.30769231       0.23076923 </v>
   <v>      -0.33333333      -0.30769231       0.23076923 </v>
   <v>       0.00000000      -0.23076923       0.23076923 </v>
   <v>       0.33333333      -0.23076923       0.23076923 </v>
   <v>      -0.33333333      -0.23076923       0.23076923 </v>
   <v>       0.00000000      -0.15384615       0.23076923 </v>
   <v>       0.33333333      -0.15384615       0.23076923 </v>
   <v>      -0.33333333      -0.15384615       0.23076923 </v>
   <v>       0.00000000      -0.07692308       0.23076923 </v>
   <v>       0.33333333      -0.07692308       0.23076923 </v>
   <v>      -0.33333333      -0.07692308       0.23076923 </v>
   <v>       0.00000000       0.00000000       0.30769231 </v>
   <v>       0.33333333       0.00000000       0.30769231 </v>
   <v>      -0.33333333       0.00000000       0.30769231 </v>
   <v>       0.00000000      -0.38461538       0.30769231 </v>
   <v>       0.33333333      -0.38461538       0.30769231 </v>
   <v>       0.00000000      -0.30769231       0.30769231 </v>
   <v>       0.33333333      -0.30769231       0.30769231 </v>
   <v>      -0.33333333      -0.30769231       0.30769231 </v>
   <v>       0.00000000      -0.23076923       0.30769231 </v>
   <v>       0.33333333      -0.23076923       0.30769231 </v>
   <v>      -0.33333333      -0.23076923       0.30769231 </v>
   <v>       0.00000000      -0.15384615       0.30769231 </v>
   <v>       0.33333333      -0.15384615       0.30769231 </v>
   <v>      -0.33333333      -0.15384615       0.30769231 </v>
   <v>       0.00000000      -0.07692308       0.30769231 </v>
   <v>       0.33333333      -0.07692308       0.30769231 </v>
   <v>      -0.33333333      -0.07692308       0.30769231 </v>
   <v>       0.00000000       0.00000000       0.38461538 </v>
   <v>       0.33333333       0.00000000       0.38461538 </v>
   <v>      -0.33333333       0.00000000       0.38461538 </v>
   <v>       0.00000000      -0.23076923       0.38461538 </v>
   <v>       0.33333333      -0.23076923       0.38461538 </v>
   <v>       0.00000000      -0.15384615       0.38461538 </v>
   <v>       0.33333333      -0.15384615       0.38461538 </v>
   <v>      -0.33333333      -0.15384615       0.38461538 </v>
   <v>       0.00000000      -0.07692308       0.38461538 </v>
   <v>       0.33333333      -0.07692308       0.38461538 </v>
   <v>      -0.33333333      -0.07692308       0.38461538 </v>
   <v>       0.00000000       0.00000000       0.46153846 </v>
   <v>       0.33333333       0.00000000       0.46153846 </v>
   <v>      -0.33333333       0.00000000       0.46153846 </v>
   <v>       0.00000000      -0.07692308       0.46153846 </v>
   <v>       0.33333333      -0.07692308       0.46153846 </v>
  </varray>
  <varray name="weights" >
   <v>       0.00197239 </v>
   <v>       0.00394477 </v>
   <v>       0.00788955 </v>
   <v>       0.00788955 </v>
   <v>       0.00788955 </v>
   <v>       0.00788955 </v>
   <v>       0.00788955 </v>
   <v>       0.00788955 </v>
   <v>       0.00788955 </v>
   <v>       0.00788955 </v>
   <v>       0.00788955 </v>
   <v>       0.00788955 </v>
   <v>       0.00788955 </v>
   <v>       0.00788955 </v>
   <v>       0.00788955 </v>
   <v>       0.00788955 </v>
   <v>       0.00788955 </v>
   <v>       0.00788955 </v>
   <v>       0.00788955 </v>
   <v>       0.00788955 </v>
   <v>       0.00394477 </v>
   <v>       0.00394477 </v>
   <v>       0.00394477 </v>
   <v>       0.00394477 </v>
   <v>       0.00788955 </v>
   <v>       0.00788955 </v>
   <v>       0.00788955 </v>
   <v>       0.00788955 </v>
   <v>       0.00788955 </v>
   <v>       0.00788955 </v>
   <v>       0.00788955 </v>
   <v>       0.00788955 </v>
   <v>       0.00788955 </v>
   <v>       0.00788955 </v>
   <v>       0.00788955 </v>
   <v>       0.00788955 </v>
   <v>       0.00788955 </v>
   <v>       0.00788955 </v>
   <v>       0.00788955 </v>
   <v>       0.00788955 </v>
   <v>       0.00788955 </v>
   <v>       0.00788955 </v>
   <v>       0.00788955 </v>
   <v>       0.00788955 </v>
   <v>       0.00788955 </v>
   <v>       0.00788955 </v>
   <v>       0.00788955 </v>
   <v>       0.00788955 </v>
   <v>       0.00788955 </v>
   <v>       0.00788955 </v>
   <v>       0.00788955 </v>
   <v>       0.00788955 </v>
   <v>       0.00788955 </v>
   <v>       0.00788955 </v>
   <v>       0.00788955 </v>
   <v>       0.00394477 </v>
   <v>       0.00394477 </v>
   <v>       0.00394477 </v>
   <v>       0.00394477 </v>
   <v>       0.00788955 </v>
   <v>       0.00788955 </v>
   <v>       0.00788955 </v>
   <v>       0.00788955 </v>
   <v>       0.00788955 </v>
   <v>       0.00788955 </v>
   <v>       0.00788955 </v>
   <v>       0.00788955 </v>
   <v>       0.00788955 </v>
   <v>       0.00788955 </v>
   <v>       0.00788955 </v>
   <v>       0.00788955 </v>
   <v>       0.00788955 </v>
   <v>       0.00788955 </v>
   <v>       0.00788955 </v>
   <v>       0.00788955 </v>
   <v>       0.00788955 </v>
   <v>       0.00788955 </v>
   <v>       0.00788955 </v>
   <v>       0.00788955 </v>
   <v>       0.00788955 </v>
   <v>       0.00788955 </v>
   <v>       0.00788955 </v>
   <v>       0.00788955 </v>
   <v>       0.00788955 </v>
   <v>       0.00394477 </v>
   <v>       0.00394477 </v>
   <v>       0.00394477 </v>
   <v>       0.00394477 </v>
   <v>       0.00788955 </v>
   <v>       0.00788955 </v>
   <v>       0.00788955 </v>
   <v>       0.00788955 </v>
   <v>       0.00788955 </v>
   <v>       0.00788955 </v>
   <v>       0.00788955 </v>
   <v>       0.00788955 </v>
   <v>       0.00788955 </v>
   <v>       0.00788955 </v>
   <v>       0.00788955 </v>
   <v>       0.00788955 </v>
   <v>       0.00788955 </v>
   <v>       0.00788955 </v>
   <v>       0.00788955 </v>
   <v>       0.00788955 </v>
   <v>       0.00788955 </v>
   <v>       0.00788955 </v>
   <v>       0.00788955 </v>
   <v>       0.00394477 </v>
   <v>       0.00394477 </v>
   <v>       0.00394477 </v>
   <v>       0.00394477 </v>
   <v>       0.00788955 </v>
   <v>       0.00788955 </v>
   <v>       0.00788955 </v>
   <v>       0.00788955 </v>
   <v>       0.00788955 </v>
   <v>       0.00788955 </v>
   <v>       0.00788955 </v>
   <v>       0.00788955 </v>
   <v>       0.00788955 </v>
   <v>       0.00788955 </v>
   <v>       0.00788955 </v>
   <v>       0.00788955 </v>
   <v>       0.00788955 </v>
   <v>       0.00394477 </v>
   <v>       0.00394477 </v>
   <v>       0.00394477 </v>
   <v>       0.00394477 </v>
   <v>       0.00788955 </v>
   <v>       0.00788955 </v>
   <v>       0.00788955 </v>
   <v>       0.00788955 </v>
   <v>       0.00788955 </v>
   <v>       0.00788955 </v>
   <v>       0.00788955 </v>
   <v>       0.00394477 </v>
   <v>       0.00394477 </v>
   <v>       0.00394477 </v>
   <v>       0.00394477 </v>
   <v>       0.00788955 </v>
  </varray>
 </kpoints>
 <parameters>
  <separator name="general" >
   <i type="string" name="SYSTEM">unknown system</i>
   <i type="logical" name="LCOMPAT"> F  </i>
  </separator>
  <separator name="electronic" >
   <i type="string" name="PREC">accura</i>
   <i name="ENMAX">    500.00000000</i>
   <i name="ENAUG">    322.06900000</i>
   <i name="EDIFF">      0.00000001</i>
   <i type="int" name="IALGO">    38</i>
   <i type="int" name="IWAVPR">    10</i>
   <i type="int" name="NBANDS">    24</i>
   <i type="int" name="NBANDSLOW">    -1</i>
   <i type="int" name="NBANDSHIGH">    -1</i>
   <i name="NELECT">     32.00000000</i>
   <i type="int" name="TURBO">     0</i>
   <i type="int" name="IRESTART">     0</i>
   <i type="int" name="NREBOOT">     0</i>
   <i type="int" name="NMIN">     0</i>
   <i name="EREF">      0.00000000</i>
   <separator name="electronic smearing" >
    <i type="int" name="ISMEAR">     0</i>
    <i name="SIGMA">      0.01000000</i>
    <i name="KSPACING">      0.50000000</i>
    <i type="logical" name="KGAMMA"> T  </i>
    <i type="logical" name="KBLOWUP"> F  </i>
   </separator>
   <separator name="electronic projectors" >
    <i type="logical" name="LREAL"> F  </i>
    <v name="ROPT">      0.00000000</v>
    <i type="int" name="LMAXPAW">  -100</i>
    <i type="int" name="LMAXMIX">     2</i>
    <i type="logical" name="NLSPLINE"> F  </i>
   </separator>
   <separator name="electronic startup" >
    <i type="int" name="ISTART">     0</i>
    <i type="int" name="ICHARG">     2</i>
    <i type="int" name="INIWAV">     1</i>
   </separator>
   <separator name="electronic spin" >
    <i type="int" name="ISPIN">     1</i>
    <i type="logical" name="LNONCOLLINEAR"> F  </i>
    <v name="MAGMOM">      1.00000000      1.00000000      1.00000000      1.00000000      1.00000000      1.00000000      1.00000000      1.00000000</v>
    <i name="NUPDOWN">     -1.00000000</i>
    <i type="logical" name="LSORBIT"> F  </i>
    <v name="SAXIS">      0.00000000      0.00000000      1.00000000</v>
    <i type="logical" name="LSPIRAL"> F  </i>
    <v name="QSPIRAL">      0.00000000      0.00000000      0.00000000</v>
    <i type="logical" name="LZEROZ"> F  </i>
   </separator>
   <separator name="electronic exchange-correlation" >
    <i type="logical" name="LASPH"> F  </i>
   </separator>
   <separator name="electronic convergence" >
    <i type="int" name="NELM">    60</i>
    <i type="int" name="NELMDL">    -5</i>
    <i type="int" name="NELMIN">     2</i>
    <i name="ENINI">    500.00000000</i>
    <separator name="electronic convergence detail" >
     <i type="logical" name="LDIAG"> T  </i>
     <i type="logical" name="LSUBROT"> F  </i>
     <i name="WEIMIN">      0.00000000</i>
     <i name="EBREAK">      0.00000000</i>
     <i name="DEPER">      0.30000000</i>
     <i type="int" name="NRMM">     4</i>
     <i name="TIME">      0.40000000</i>
    </separator>
   </separator>
   <separator name="electronic mixer" >
    <i name="AMIX">      0.40000000</i>
    <i name="BMIX">      1.00000000</i>
    <i name="AMIN">      0.10000000</i>
    <i name="AMIX_MAG">      1.60000000</i>
    <i name="BMIX_MAG">      1.00000000</i>
    <separator name="electronic mixer details" >
     <i type="int" name="IMIX">     4</i>
     <i type="logical" name="MIXFIRST"> F  </i>
     <i type="int" name="MAXMIX">   -45</i>
     <i name="WC">    100.00000000</i>
     <i type="int" name="INIMIX">     1</i>
     <i type="int" name="MIXPRE">     1</i>
     <i type="int" name="MREMOVE">     5</i>
    </separator>
   </separator>
   <separator name="electronic dipolcorrection" >
    <i type="logical" name="LDIPOL"> F  </i>
    <i type="logical" name="LMONO"> F  </i>
    <i type="int" name="IDIPOL">     0</i>
    <i name="EPSILON">      1.00000000</i>
    <v name="DIPOL">   -100.00000000   -100.00000000   -100.00000000</v>
    <i name="EFIELD">      0.00000000</i>
    <i type="logical" name="LVACPOTAV"> F  </i>
   </separator>
  </separator>
  <separator name="grids" >
   <i type="int" name="NGX">    96</i>
   <i type="int" name="NGY">    28</i>
   <i type="int" name="NGZ">    28</i>
   <i type="int" name="NGXF">   192</i>
   <i type="int" name="NGYF">    56</i>
   <i type="int" name="NGZF">    56</i>
   <i type="logical" name="ADDGRID"> F  </i>
  </separator>
  <separator name="ionic" >
   <i type="int" name="NSW">     0</i>
   <i type="int" name="IBRION">    -1</i>
   <i type="int" name="MDALGO">     0</i>
   <i type="int" name="ISIF">     2</i>
   <i name="PSTRESS">      0.00000000</i>
   <i name="EDIFFG">      0.00000010</i>
   <i type="int" name="NFREE">     0</i>
   <i name="POTIM">      0.50000000</i>
   <i name="SMASS">     -3.00000000</i>
   <i name="SCALEE">      1.00000000</i>
  </separator>
  <separator name="ionic md" >
   <i name="TEBEG">      0.00010000</i>
   <i name="TEEND">      0.00010000</i>
   <i type="int" name="NBLOCK">     1</i>
   <i type="int" name="KBLOCK">     1</i>
   <i type="int" name="NPACO">   256</i>
   <i name="APACO">     10.00000000</i>
  </separator>
  <separator name="symmetry" >
   <i type="int" name="ISYM">     2</i>
   <i name="SYMPREC">      0.00001000</i>
  </separator>
  <separator name="dos" >
   <i type="int" name="LORBIT">     0</i>
   <v name="RWIGS">     -1.00000000</v>
   <i type="int" name="NEDOS">   301</i>
   <i name="EMIN">     10.00000000</i>
   <i name="EMAX">    -10.00000000</i>
   <i name="EFERMI">      0.00000000</i>
  </separator>
  <separator name="writing" >
   <i type="int" name="NWRITE">     2</i>
   <i type="logical" name="LWAVE"> F  </i>
   <i type="logical" name="LDOWNSAMPLE"> F  </i>
   <i type="logical" name="LCHARG"> F  </i>
   <i type="logical" name="LPARD"> F  </i>
   <i type="logical" name="LVTOT"> F  </i>
   <i type="logical" name="LVHAR"> F  </i>
   <i type="logical" name="LELF"> F  </i>
   <i type="logical" name="LOPTICS"> F  </i>
   <v name="STM">      0.00000000      0.00000000      0.00000000      0.00000000      0.00000000      0.00000000      0.00000000</v>
  </separator>
  <separator name="performance" >
   <i type="int" name="NPAR">     8</i>
   <i type="int" name="NSIM">     4</i>
   <i type="int" name="NBLK">    -1</i>
   <i type="logical" name="LPLANE"> T  </i>
   <i type="logical" name="LSCALAPACK"> T  </i>
   <i type="logical" name="LSCAAWARE"> F  </i>
   <i type="logical" name="LSCALU"> F  </i>
   <i type="logical" name="LASYNC"> F  </i>
   <i type="logical" name="LORBITALREAL"> F  </i>
  </separator>
  <separator name="miscellaneous" >
   <i type="int" name="IDIOT">     3</i>
   <i type="int" name="PHON_NSTRUCT">    -1</i>
   <i type="logical" name="LMUSIC"> F  </i>
   <v name="POMASS">     28.08500000</v>
   <v name="DARWINR">      0.00000000</v>
   <v name="DARWINV">      1.00000000</v>
   <i type="logical" name="LCORR"> T  </i>
  </separator>
  <i type="logical" name="GGA_COMPAT"> T  </i>
  <i type="logical" name="LBERRY"> F  </i>
  <i type="int" name="ICORELEVEL">     0</i>
  <i type="logical" name="LDAU"> F  </i>
  <i type="int" name="I_CONSTRAINED_M">     0</i>
  <separator name="electronic exchange-correlation" >
   <i type="string" name="GGA    ">PE</i>
   <i type="string" name="XC_C">1</i>
   <i type="int" name="VOSKOWN">     0</i>
   <i type="logical" name="LHFCALC"> F  </i>
   <i type="string" name="PRECFOCK"></i>
   <i type="logical" name="LSYMGRAD"> F  </i>
   <i type="logical" name="LHFONE"> F  </i>
   <i type="logical" name="LRHFCALC"> F  </i>
   <i type="logical" name="LTHOMAS"> F  </i>
   <i type="logical" name="LMODELHF"> F  </i>
   <i type="logical" name="LFOCKACE"> F  </i>
   <i name="ENCUT4O">     -1.00000000</i>
   <i type="int" name="EXXOEP">     0</i>
   <i type="int" name="FOURORBIT">     0</i>
   <i name="AEXX">      0.00000000</i>
   <i name="HFALPHA">      0.00000000</i>
   <i name="MCALPHA">      0.00000000</i>
   <i name="ALDAX">      1.00000000</i>
   <i name="AGGAX">      1.00000000</i>
   <i name="AMGGAX">      1.00000000</i>
   <i name="ALDAC">      1.00000000</i>
   <i name="AGGAC">      1.00000000</i>
   <i name="AMGGAC">      1.00000000</i>
   <i type="int" name="NKREDX">     1</i>
   <i type="int" name="NKREDY">     1</i>
   <i type="int" name="NKREDZ">     1</i>
   <i type="logical" name="SHIFTRED"> F  </i>
   <i type="logical" name="ODDONLY"> F  </i>
   <i type="logical" name="EVENONLY"> F  </i>
   <i type="int" name="LMAXFOCK">     0</i>
   <i type="int" name="NMAXFOCKAE">     0</i>
   <i type="logical" name="LFOCKAEDFT"> F  </i>
   <i name="HFSCREEN">      0.00000000</i>
   <i name="HFSCREENC">      0.00000000</i>
   <i type="int" name="NBANDSGWLOW">     0</i>
  </separator>
  <separator name="vdW DFT" >
   <i type="logical" name="LUSE_VDW"> F  </i>
   <i type="int" name="IVDW_NL">    -1</i>
   <i type="logical" name="LSPIN_VDW"> F  </i>
   <i name="ZAB_VDW">     -0.84910000</i>
   <i name="GAMMA_VDW">      1.39626340</i>
   <i name="ALPHA_VDW">      0.00000000</i>
   <i name="PARAM1">      0.12340000</i>
   <i name="PARAM2">      1.00000000</i>
   <i name="BPARAM">      6.30000000</i>
   <i name="CPARAM">      0.00930000</i>
  </separator>
  <separator name="model GW" >
   <i type="int" name="MODEL_GW">     0</i>
   <i name="MODEL_EPS0">     12.09885805</i>
   <i name="MODEL_ALPHA">      1.00000000</i>
  </separator>
  <separator name="linear response parameters" >
   <i type="logical" name="LEPSILON"> F  </i>
   <i type="logical" name="LRPA"> F  </i>
   <i type="logical" name="LNABLA"> F  </i>
   <i type="logical" name="LVEL"> F  </i>
   <i name="CSHIFT">      0.10000000</i>
   <i name="OMEGAMAX">     -1.00000000</i>
   <i name="DEG_THRESHOLD">      0.00200000</i>
   <i name="RTIME">     -0.10000000</i>
   <i name="WPLASMAI">      0.00000000</i>
   <v name="DFIELD">      0.00000000      0.00000000      0.00000000</v>
   <v name="WPLASMA">      0.00000000      0.00000000      0.00000000      0.00000000      0.00000000      0.00000000      0.00000000      0.00000000      0.00000000</v>
  </separator>
  <separator name="orbital magnetization" >
   <i type="logical" name="NUCIND"> F  </i>
   <v name="MAGPOS">      0.00000000      0.00000000      0.00000000</v>
   <i type="logical" name="LNICSALL"> T  </i>
   <i type="logical" name="ORBITALMAG"> F  </i>
   <i type="logical" name="LMAGBLOCH"> F  </i>
   <i type="logical" name="LCHIMAG"> F  </i>
   <i type="logical" name="LGAUGE"> T  </i>
   <i type="int" name="MAGATOM">     0</i>
   <v name="MAGDIPOL">      0.00000000      0.00000000      0.00000000</v>
   <v name="AVECCONST">      0.00000000      0.00000000      0.00000000</v>
  </separator>
  <separator name="response functions" >
   <i type="logical" name="LALL_IN_ONE"> F  </i>
   <i type="int" name="IALL_IN_ONE">    -1</i>
   <i type="int" name="NBANDS_WAVE">    -1</i>
   <i type="logical" name="LFINITE_TEMPERATURE"> F  </i>
   <i type="logical" name="LADDER"> F  </i>
   <i type="logical" name="LRPAFORCE"> F  </i>
   <i type="logical" name="LFXC"> F  </i>
   <i type="logical" name="LHARTREE"> T  </i>
   <i type="int" name="IBSE">     0</i>
   <v type="int" name="KPOINT">    -1     0     0     0</v>
   <i type="logical" name="LTCTC"> F  </i>
   <i type="logical" name="LTCTE"> F  </i>
   <i type="logical" name="LTETE"> F  </i>
   <i type="logical" name="LTRIPLET"> F  </i>
   <i type="logical" name="LFXCEPS"> F  </i>
   <i type="logical" name="LFXHEG"> F  </i>
   <i type="int" name="NATURALO">     2</i>
   <i type="logical" name="LHOLEGF"> F  </i>
   <i type="logical" name="L2ORDER"> F  </i>
   <i type="logical" name="LDMP1"> F  </i>
   <i type="logical" name="LMP2LT"> F  </i>
   <i type="logical" name="LSMP2LT"> F  </i>
   <i type="logical" name="LGWLF"> F  </i>
   <i name="ENCUTGW">     -1.60000002</i>
   <i name="ENCUTGWSOFT">     -1.60000002</i>
   <i name="ENCUTLF">     -1.00000000</i>
   <i type="logical" name="ESF_SPLINES"> F  </i>
   <i name="ESF_CONV">      0.01000000</i>
   <i type="int" name="ESF_NINTER">    15</i>
   <i type="int" name="LMAXMP2">    -1</i>
   <i name="SCISSOR">      0.00000000</i>
   <i type="int" name="NOMEGA">     0</i>
   <i type="int" name="NOMEGAR">     0</i>
   <i type="int" name="NBANDSGW">    -1</i>
   <i type="int" name="NBANDSO">    -1</i>
   <i type="int" name="NBANDSV">    -1</i>
   <i type="int" name="NELMGW">     1</i>
   <i type="int" name="NELMHF">     1</i>
   <i type="int" name="DIM">     3</i>
   <i type="int" name="IESPILON">     4</i>
   <i type="int" name="ANTIRES">     0</i>
   <i name="OMEGAMAX">    -30.00000000</i>
   <i name="OMEGAMIN">    -30.00000000</i>
   <i name="OMEGATL">   -200.00000000</i>
   <i type="int" name="OMEGAGRID">     0</i>
   <i name="CSHIFT">     -0.10000000</i>
   <i type="logical" name="LSELFENERGY"> F  </i>
   <i type="logical" name="LSPECTRAL"> F  </i>
   <i type="logical" name="LSPECTRALGW"> F  </i>
   <i type="logical" name="LSINGLES"> F  </i>
   <i type="logical" name="LFERMIGW"> F  </i>
   <i type="logical" name="ODDONLYGW"> F  </i>
   <i type="logical" name="EVENONLYGW"> F  </i>
   <i type="int" name="NKREDLFX">     1</i>
   <i type="int" name="NKREDLFY">     1</i>
   <i type="int" name="NKREDLFZ">     1</i>
   <i type="int" name="MAXMEM">  2800</i>
   <i type="int" name="TELESCOPE">     0</i>
   <i type="int" name="NTAUPAR">    -1</i>
   <i type="int" name="NOMEGAPAR">    -1</i>
   <i name="DAMP_NEWTON">      0.80000001</i>
   <i name="LAMBDA">      1.00000000</i>
  </separator>
  <separator name="External order field" >
   <i name="OFIELD_KAPPA">      0.00000000</i>
   <v name="OFIELD_K">      0.00000000      0.00000000      0.00000000</v>
   <i name="OFIELD_Q6_NEAR">      0.00000000</i>
   <i name="OFIELD_Q6_FAR">      0.00000000</i>
   <i name="OFIELD_A">      0.00000000</i>
  </separator>
  <separator name="optional k-points parameters" >
   <i type="int" name="KPOINTS_OPT_MODE">     1</i>
   <i type="logical" name="LKPOINTS_OPT"> F  </i>
  </separator>
 </parameters>
 <atominfo>
  <atoms>       8 </atoms>
  <types>       1 </types>
  <array name="atoms" >
   <dimension dim="1">ion</dimension>
   <field type="string">element</field>
   <field type="int">atomtype</field>
   <set>
    <rc><c>Si</c><c>   1</c></rc>
    <rc><c>Si</c><c>   1</c></rc>
    <rc><c>Si</c><c>   1</c></rc>
    <rc><c>Si</c><c>   1</c></rc>
    <rc><c>Si</c><c>   1</c></rc>
    <rc><c>Si</c><c>   1</c></rc>
    <rc><c>Si</c><c>   1</c></rc>
    <rc><c>Si</c><c>   1</c></rc>
   </set>
  </array>
  <array name="atomtypes" >
   <dimension dim="1">type</dimension>
   <field type="int">atomspertype</field>
   <field type="string">element</field>
   <field>mass</field>
   <field>valence</field>
   <field type="string">pseudopotential</field>
   <set>
    <rc><c>   8</c><c>Si</c><c>     28.08500000</c><c>      4.00000000</c><c>  PAW_PBE Si 05Jan2001                  </c></rc>
   </set>
  </array>
 </atominfo>
 <structure name="initialpos" >
  <crystal>
   <varray name="basis" >
    <v>      -8.16555356       5.44370237       8.16555356 </v>
    <v>       2.72185119       0.00000000       2.72185119 </v>
    <v>       2.72185119       2.72185119       0.00000000 </v>
   </varray>
   <i name="volume">    161.31810740 </i>
   <varray name="rec_basis" >
    <v>      -0.04592463       0.04592463       0.04592463 </v>
    <v>       0.13777388      -0.13777388       0.22962313 </v>
    <v>       0.09184925       0.27554776      -0.09184925 </v>
   </varray>
  </crystal>
  <varray name="positions" >
   <v>       0.99921671       0.00000000       0.00000000 </v>
   <v>       0.25000000       0.25000000       0.50000000 </v>
   <v>       0.50000000       0.50000000       0.00000000 </v>
   <v>       0.75000000       0.75000000       0.50000000 </v>
   <v>       0.06250000       0.31250000       0.37500000 </v>
   <v>       0.31250000       0.56250000       0.87500000 </v>
   <v>       0.56250000       0.81250000       0.37500000 </v>
   <v>       0.81250000       0.06250000       0.87500000 </v>
  </varray>
 </structure>
 <calculation>
  <scstep>
   <time name="dav">    0.76    0.77</time>
   <time name="total">    0.78    0.79</time>
   <energy>
    <i name="alphaZ">     13.35522965 </i>
    <i name="ewald">   -911.94919420 </i>
    <i name="hartreedc">    -44.46192378 </i>
    <i name="XCdc">    -74.52612059 </i>
    <i name="pawpsdc">    704.99039692 </i>
    <i name="pawaedc">   -564.24414232 </i>
    <i name="eentropy">     -0.00003759 </i>
    <i name="bandstr">    119.75393000 </i>
    <i name="atom">    824.53005375 </i>
    <i name="e_fr_energy">     67.44819184 </i>
    <i name="e_wo_entrp">     67.44822944 </i>
    <i name="e_0_energy">     67.44821064 </i>
   </energy>
  </scstep>
  <scstep>
   <time name="dav">    0.87    0.88</time>
   <time name="total">    0.87    0.88</time>
   <energy>
    <i name="e_fr_energy">    -38.84215069 </i>
    <i name="e_wo_entrp">    -38.84211473 </i>
    <i name="e_0_energy">    -38.84213271 </i>
   </energy>
  </scstep>
  <scstep>
   <time name="dav">    0.88    0.88</time>
   <time name="total">    0.88    0.88</time>
   <energy>
    <i name="e_fr_energy">    -43.99740886 </i>
    <i name="e_wo_entrp">    -43.99740886 </i>
    <i name="e_0_energy">    -43.99740886 </i>
   </energy>
  </scstep>
  <scstep>
   <time name="dav">    0.83    0.84</time>
   <time name="total">    0.83    0.84</time>
   <energy>
    <i name="e_fr_energy">    -44.09117066 </i>
    <i name="e_wo_entrp">    -44.09117066 </i>
    <i name="e_0_energy">    -44.09117066 </i>
   </energy>
  </scstep>
  <scstep>
   <time name="dav">    0.87    0.88</time>
   <time name="total">    0.91    0.92</time>
   <energy>
    <i name="e_fr_energy">    -44.09351142 </i>
    <i name="e_wo_entrp">    -44.09351142 </i>
    <i name="e_0_energy">    -44.09351142 </i>
   </energy>
  </scstep>
  <scstep>
   <time name="dav">    0.80    0.80</time>
   <time name="total">    0.86    0.87</time>
   <energy>
    <i name="e_fr_energy">    -43.60686123 </i>
    <i name="e_wo_entrp">    -43.60686123 </i>
    <i name="e_0_energy">    -43.60686123 </i>
   </energy>
  </scstep>
  <scstep>
   <time name="dav">    0.81    0.82</time>
   <time name="total">    0.87    0.88</time>
   <energy>
    <i name="e_fr_energy">    -43.38598086 </i>
    <i name="e_wo_entrp">    -43.38598086 </i>
    <i name="e_0_energy">    -43.38598086 </i>
   </energy>
  </scstep>
  <scstep>
   <time name="dav">    0.82    0.82</time>
   <time name="total">    0.88    0.88</time>
   <energy>
    <i name="e_fr_energy">    -43.38893761 </i>
    <i name="e_wo_entrp">    -43.38893761 </i>
    <i name="e_0_energy">    -43.38893761 </i>
   </energy>
  </scstep>
  <scstep>
   <time name="dav">    0.86    0.86</time>
   <time name="total">    0.92    0.92</time>
   <energy>
    <i name="e_fr_energy">    -43.38984580 </i>
    <i name="e_wo_entrp">    -43.38984580 </i>
    <i name="e_0_energy">    -43.38984580 </i>
   </energy>
  </scstep>
  <scstep>
   <time name="dav">    0.82    0.82</time>
   <time name="total">    0.87    0.88</time>
   <energy>
    <i name="e_fr_energy">    -43.39009861 </i>
    <i name="e_wo_entrp">    -43.39009861 </i>
    <i name="e_0_energy">    -43.39009861 </i>
   </energy>
  </scstep>
  <scstep>
   <time name="dav">    0.89    0.89</time>
   <time name="total">    0.95    0.95</time>
   <energy>
    <i name="e_fr_energy">    -43.39009588 </i>
    <i name="e_wo_entrp">    -43.39009588 </i>
    <i name="e_0_energy">    -43.39009588 </i>
   </energy>
  </scstep>
  <scstep>
   <time name="dav">    0.83    0.83</time>
   <time name="total">    0.89    0.89</time>
   <energy>
    <i name="e_fr_energy">    -43.39009740 </i>
    <i name="e_wo_entrp">    -43.39009740 </i>
    <i name="e_0_energy">    -43.39009740 </i>
   </energy>
  </scstep>
  <scstep>
   <time name="dav">    0.86    0.86</time>
   <time name="total">    0.92    0.92</time>
   <energy>
    <i name="e_fr_energy">    -43.39009745 </i>
    <i name="e_wo_entrp">    -43.39009745 </i>
    <i name="e_0_energy">    -43.39009745 </i>
   </energy>
  </scstep>
  <scstep>
   <time name="dav">    0.83    0.83</time>
   <time name="total">    0.88    0.89</time>
   <energy>
    <i name="e_fr_energy">    -43.39009744 </i>
    <i name="e_wo_entrp">    -43.39009744 </i>
    <i name="e_0_energy">    -43.39009744 </i>
   </energy>
  </scstep>
  <scstep>
   <time name="dav">    0.68    0.68</time>
   <time name="total">    0.70    0.71</time>
   <energy>
    <i name="alphaZ">     13.35522965 </i>
    <i name="ewald">   -911.94919420 </i>
    <i name="hartreedc">    -60.02891030 </i>
    <i name="XCdc">    -71.99042102 </i>
    <i name="pawpsdc">   3421.36826799 </i>
    <i name="pawaedc">  -3281.49148581 </i>
    <i name="eentropy">     -0.00000000 </i>
    <i name="bandstr">     22.81636249 </i>
    <i name="atom">    824.53005375 </i>
    <i name="e_fr_energy">    -43.39009743 </i>
    <i name="e_wo_entrp">    -43.39009743 </i>
    <i name="e_0_energy">    -43.39009743 </i>
   </energy>
  </scstep>
  <structure>
   <crystal>
    <varray name="basis" >
     <v>      -8.16555356       5.44370237       8.16555356 </v>
     <v>       2.72185119       0.00000000       2.72185119 </v>
     <v>       2.72185119       2.72185119       0.00000000 </v>
    </varray>
    <i name="volume">    161.31810740 </i>
    <varray name="rec_basis" >
     <v>      -0.04592463       0.04592463       0.04592463 </v>
     <v>       0.13777388      -0.13777388       0.22962313 </v>
     <v>       0.09184925       0.27554776      -0.09184925 </v>
    </varray>
   </crystal>
   <varray name="positions" >
    <v>       0.99921671       0.00000000       0.00000000 </v>
    <v>       0.25000000       0.25000000       0.50000000 </v>
    <v>       0.50000000       0.50000000       0.00000000 </v>
    <v>       0.75000000       0.75000000       0.50000000 </v>
    <v>       0.06250000       0.31250000       0.37500000 </v>
    <v>       0.31250000       0.56250000       0.87500000 </v>
    <v>       0.56250000       0.81250000       0.37500000 </v>
    <v>       0.81250000       0.06250000       0.87500000 </v>
   </varray>
  </structure>
  <varray name="forces" >
   <v>      -0.09312403       0.06593208       0.09312403 </v>
   <v>       0.00325056      -0.00358819      -0.00325056 </v>
   <v>       0.00003902      -0.00021325      -0.00003902 </v>
   <v>       0.00329340      -0.00362333      -0.00329340 </v>
   <v>       0.04290578      -0.01732123      -0.04290578 </v>
   <v>       0.00132379      -0.00127124      -0.00132379 </v>
   <v>      -0.00003502       0.00056423       0.00003502 </v>
   <v>       0.04234650      -0.04047907      -0.04234650 </v>
  </varray>
  <varray name="stress" >
   <v>      12.53273714      -0.60748044      -0.40852828 </v>
   <v>      -0.60748044      12.53692435       0.60748044 </v>
   <v>      -0.40852828       0.60748044      12.53273714 </v>
  </varray>
  <energy>
   <i name="e_fr_energy">    -43.39009743 </i>
   <i name="e_wo_entrp">    -43.39009743 </i>
   <i name="e_0_energy">    -43.39009743 </i>
  </energy>
  <time name="totalsc">   14.00   14.08</time>
  <eigenvalues>
   <array>
    <dimension dim="1">band</dimension>
    <dimension dim="2">kpoint</dimension>
    <dimension dim="3">spin</dimension>
    <field>eigene</field>
    <field>occ</field>
    <set>
     <set comment="spin 1">
      <set comment="kpoint 1">
       <r>   -6.1550    1.0000 </r>
       <r>   -5.3679    1.0000 </r>
       <r>   -5.3513    1.0000 </r>
       <r>   -3.8368    1.0000 </r>
       <r>   -1.1890    1.0000 </r>
       <r>    1.8290    1.0000 </r>
       <r>    1.8418    1.0000 </r>
       <r>    4.5637    1.0000 </r>
       <r>    4.5662    1.0000 </r>
       <r>    4.9938    1.0000 </r>
       <r>    4.9939    1.0000 </r>
       <r>    5.0092    1.0000 </r>
       <r>    5.0148    1.0000 </r>
       <r>    5.7395    1.0000 </r>
       <r>    5.7586    1.0000 </r>
       <r>    5.7623    1.0000 </r>
       <r>    7.2712    0.0000 </r>
       <r>    7.7556    0.0000 </r>
       <r>    7.7729    0.0000 </r>
       <r>    8.3110    0.0000 </r>
       <r>    8.3130    0.0000 </r>
       <r>    8.3246    0.0000 </r>
       <r>    9.0448    0.0000 </r>
       <r>    9.1004    0.0000 </r>
      </set>
      <set comment="kpoint 2">
       <r>   -6.0646    1.0000 </r>
       <r>   -5.7956    1.0000 </r>
       <r>   -4.7858    1.0000 </r>
       <r>   -4.1687    1.0000 </r>
       <r>   -0.6867    1.0000 </r>
       <r>    0.4365    1.0000 </r>
       <r>    3.3724    1.0000 </r>
       <r>    4.6132    1.0000 </r>
       <r>    4.6156    1.0000 </r>
       <r>    4.7617    1.0000 </r>
       <r>    4.7645    1.0000 </r>
       <r>    4.8858    1.0000 </r>
       <r>    5.3097    1.0000 </r>
       <r>    5.3126    1.0000 </r>
       <r>    5.6156    1.0000 </r>
       <r>    5.6192    1.0000 </r>
       <r>    7.3283    0.0000 </r>
       <r>    7.4977    0.0000 </r>
       <r>    8.0888    0.0000 </r>
       <r>    8.3553    0.0000 </r>
       <r>    8.5221    0.0000 </r>
       <r>    8.5239    0.0000 </r>
       <r>    8.9580    0.0000 </r>
       <r>    8.9599    0.0000 </r>
      </set>
      <set comment="kpoint 3">
       <r>   -6.0859    1.0000 </r>
       <r>   -5.3315    1.0000 </r>
       <r>   -5.2518    1.0000 </r>
       <r>   -3.7705    1.0000 </r>
       <r>   -1.1513    1.0000 </r>
       <r>    1.7265    1.0000 </r>
       <r>    1.9515    1.0000 </r>
       <r>    4.0261    1.0000 </r>
       <r>    4.2276    1.0000 </r>
       <r>    4.4363    1.0000 </r>
       <r>    4.6324    1.0000 </r>
       <r>    4.7962    1.0000 </r>
       <r>    5.0975    1.0000 </r>
       <r>    5.1621    1.0000 </r>
       <r>    5.5917    1.0000 </r>
       <r>    5.6536    1.0000 </r>
       <r>    7.7303    0.0000 </r>
       <r>    8.1483    0.0000 </r>
       <r>    8.1839    0.0000 </r>
       <r>    8.3444    0.0000 </r>
       <r>    8.4549    0.0000 </r>
       <r>    8.5442    0.0000 </r>
       <r>    8.9639    0.0000 </r>
       <r>    9.0397    0.0000 </r>
      </set>
      <set comment="kpoint 4">
       <r>   -6.0093    1.0000 </r>
       <r>   -5.7001    1.0000 </r>
       <r>   -4.7658    1.0000 </r>
       <r>   -4.0592    1.0000 </r>
       <r>   -0.7201    1.0000 </r>
       <r>    0.5586    1.0000 </r>
       <r>    3.1989    1.0000 </r>
       <r>    3.9682    1.0000 </r>
       <r>    4.4482    1.0000 </r>
       <r>    4.4607    1.0000 </r>
       <r>    4.5625    1.0000 </r>
       <r>    4.5971    1.0000 </r>
       <r>    4.8504    1.0000 </r>
       <r>    5.2783    1.0000 </r>
       <r>    5.3337    1.0000 </r>
       <r>    5.4819    1.0000 </r>
       <r>    7.7799    0.0000 </r>
       <r>    7.9484    0.0000 </r>
       <r>    8.0369    0.0000 </r>
       <r>    8.4732    0.0000 </r>
       <r>    8.8115    0.0000 </r>
       <r>    8.9124    0.0000 </r>
       <r>    8.9673    0.0000 </r>
       <r>    9.0393    0.0000 </r>
      </set>
      <set comment="kpoint 5">
       <r>   -5.9819    1.0000 </r>
       <r>   -5.7541    1.0000 </r>
       <r>   -4.6713    1.0000 </r>
       <r>   -4.1448    1.0000 </r>
       <r>   -0.5841    1.0000 </r>
       <r>    0.3644    1.0000 </r>
       <r>    3.4510    1.0000 </r>
       <r>    4.0325    1.0000 </r>
       <r>    4.1960    1.0000 </r>
       <r>    4.3839    1.0000 </r>
       <r>    4.4868    1.0000 </r>
       <r>    4.8466    1.0000 </r>
       <r>    4.9241    1.0000 </r>
       <r>    5.1135    1.0000 </r>
       <r>    5.1401    1.0000 </r>
       <r>    5.6768    1.0000 </r>
       <r>    7.7897    0.0000 </r>
       <r>    7.9362    0.0000 </r>
       <r>    8.1649    0.0000 </r>
       <r>    8.4921    0.0000 </r>
       <r>    8.5716    0.0000 </r>
       <r>    8.6688    0.0000 </r>
       <r>    8.8619    0.0000 </r>
       <r>    9.0089    0.0000 </r>
      </set>
      <set comment="kpoint 6">
       <r>   -5.8802    1.0000 </r>
       <r>   -5.1654    1.0000 </r>
       <r>   -5.0144    1.0000 </r>
       <r>   -3.5726    1.0000 </r>
       <r>   -1.0593    1.0000 </r>
       <r>    1.5536    1.0000 </r>
       <r>    1.9935    1.0000 </r>
       <r>    3.0377    1.0000 </r>
       <r>    3.2007    1.0000 </r>
       <r>    3.8516    1.0000 </r>
       <r>    4.1159    1.0000 </r>
       <r>    4.1276    1.0000 </r>
       <r>    4.1910    1.0000 </r>
       <r>    5.0593    1.0000 </r>
       <r>    5.2275    1.0000 </r>
       <r>    5.4101    1.0000 </r>
       <r>    7.7356    0.0000 </r>
       <r>    7.9062    0.0000 </r>
       <r>    8.2674    0.0000 </r>
       <r>    8.6462    0.0000 </r>
       <r>    8.6705    0.0000 </r>
       <r>    9.0559    0.0000 </r>
       <r>    9.4715    0.0000 </r>
       <r>    9.6235    0.0000 </r>
      </set>
      <set comment="kpoint 7">
       <r>   -5.8168    1.0000 </r>
       <r>   -5.4712    1.0000 </r>
       <r>   -4.6099    1.0000 </r>
       <r>   -3.8212    1.0000 </r>
       <r>   -0.6975    1.0000 </r>
       <r>    0.6793    1.0000 </r>
       <r>    2.6370    1.0000 </r>
       <r>    2.9106    1.0000 </r>
       <r>    3.6775    1.0000 </r>
       <r>    3.8650    1.0000 </r>
       <r>    4.0351    1.0000 </r>
       <r>    4.0999    1.0000 </r>
       <r>    4.3616    1.0000 </r>
       <r>    4.8431    1.0000 </r>
       <r>    4.8743    1.0000 </r>
       <r>    5.3721    1.0000 </r>
       <r>    7.7274    0.0000 </r>
       <r>    7.8505    0.0000 </r>
       <r>    8.0891    0.0000 </r>
       <r>    8.7589    0.0000 </r>
       <r>    9.0220    0.0000 </r>
       <r>    9.2990    0.0000 </r>
       <r>    9.5122    0.0000 </r>
       <r>    9.6295    0.0000 </r>
      </set>
      <set comment="kpoint 8">
       <r>   -5.7639    1.0000 </r>
       <r>   -5.5752    1.0000 </r>
       <r>   -4.4282    1.0000 </r>
       <r>   -3.9861    1.0000 </r>
       <r>   -0.4455    1.0000 </r>
       <r>    0.3223    1.0000 </r>
       <r>    2.9458    1.0000 </r>
       <r>    3.2995    1.0000 </r>
       <r>    3.3030    1.0000 </r>
       <r>    3.3309    1.0000 </r>
       <r>    4.0154    1.0000 </r>
       <r>    4.4699    1.0000 </r>
       <r>    4.5008    1.0000 </r>
       <r>    4.6893    1.0000 </r>
       <r>    4.9375    1.0000 </r>
       <r>    5.4540    1.0000 </r>
       <r>    7.4999    0.0000 </r>
       <r>    7.8429    0.0000 </r>
       <r>    8.2380    0.0000 </r>
       <r>    8.3664    0.0000 </r>
       <r>    8.8076    0.0000 </r>
       <r>    9.1254    0.0000 </r>
       <r>    9.7031    0.0000 </r>
       <r>    9.7756    0.0000 </r>
      </set>
      <set comment="kpoint 9">
       <r>   -5.5429    1.0000 </r>
       <r>   -4.8645    1.0000 </r>
       <r>   -4.6585    1.0000 </r>
       <r>   -3.2471    1.0000 </r>
       <r>   -0.9983    1.0000 </r>
       <r>    0.9937    1.0000 </r>
       <r>    1.7184    1.0000 </r>
       <r>    2.1340    1.0000 </r>
       <r>    2.5396    1.0000 </r>
       <r>    2.6432    1.0000 </r>
       <r>    3.6258    1.0000 </r>
       <r>    3.7682    1.0000 </r>
       <r>    3.7840    1.0000 </r>
       <r>    4.8094    1.0000 </r>
       <r>    4.8507    1.0000 </r>
       <r>    5.0522    1.0000 </r>
       <r>    7.0571    0.0000 </r>
       <r>    7.5120    0.0000 </r>
       <r>    8.1461    0.0000 </r>
       <r>    8.5483    0.0000 </r>
       <r>    8.7994    0.0000 </r>
       <r>    8.8804    0.0000 </r>
       <r>    9.5396    0.0000 </r>
       <r>    9.8733    0.0000 </r>
      </set>
      <set comment="kpoint 10">
       <r>   -5.4907    1.0000 </r>
       <r>   -5.1185    1.0000 </r>
       <r>   -4.3195    1.0000 </r>
       <r>   -3.4685    1.0000 </r>
       <r>   -0.6964    1.0000 </r>
       <r>    0.6309    1.0000 </r>
       <r>    1.5477    1.0000 </r>
       <r>    1.9566    1.0000 </r>
       <r>    2.9115    1.0000 </r>
       <r>    3.0399    1.0000 </r>
       <r>    3.6340    1.0000 </r>
       <r>    3.7502    1.0000 </r>
       <r>    4.0434    1.0000 </r>
       <r>    4.4361    1.0000 </r>
       <r>    4.4738    1.0000 </r>
       <r>    5.1156    1.0000 </r>
       <r>    7.2982    0.0000 </r>
       <r>    7.6814    0.0000 </r>
       <r>    7.7857    0.0000 </r>
       <r>    8.4215    0.0000 </r>
       <r>    9.1134    0.0000 </r>
       <r>    9.2676    0.0000 </r>
       <r>    9.5446    0.0000 </r>
       <r>    9.6494    0.0000 </r>
      </set>
      <set comment="kpoint 11">
       <r>   -5.4176    1.0000 </r>
       <r>   -5.2616    1.0000 </r>
       <r>   -4.0719    1.0000 </r>
       <r>   -3.6942    1.0000 </r>
       <r>   -0.3859    1.0000 </r>
       <r>    0.1729    1.0000 </r>
       <r>    2.0341    1.0000 </r>
       <r>    2.0593    1.0000 </r>
       <r>    2.5101    1.0000 </r>
       <r>    2.6377    1.0000 </r>
       <r>    3.6335    1.0000 </r>
       <r>    4.0467    1.0000 </r>
       <r>    4.0549    1.0000 </r>
       <r>    4.4111    1.0000 </r>
       <r>    4.8615    1.0000 </r>
       <r>    5.1355    1.0000 </r>
       <r>    7.0357    0.0000 </r>
       <r>    7.3779    0.0000 </r>
       <r>    7.8604    0.0000 </r>
       <r>    8.1740    0.0000 </r>
       <r>    9.1313    0.0000 </r>
       <r>    9.2279    0.0000 </r>
       <r>    9.3444    0.0000 </r>
       <r>   10.1994    0.0000 </r>
      </set>
      <set comment="kpoint 12">
       <r>   -5.0861    1.0000 </r>
       <r>   -4.4337    1.0000 </r>
       <r>   -4.2165    1.0000 </r>
       <r>   -2.8049    1.0000 </r>
       <r>   -1.1582    1.0000 </r>
       <r>    0.0755    1.0000 </r>
       <r>    1.0290    1.0000 </r>
       <r>    1.2977    1.0000 </r>
       <r>    1.6234    1.0000 </r>
       <r>    2.6562    1.0000 </r>
       <r>    3.4241    1.0000 </r>
       <r>    3.4429    1.0000 </r>
       <r>    3.4646    1.0000 </r>
       <r>    4.5297    1.0000 </r>
       <r>    4.5547    1.0000 </r>
       <r>    4.6235    1.0000 </r>
       <r>    6.5715    0.0000 </r>
       <r>    7.1162    0.0000 </r>
       <r>    7.9645    0.0000 </r>
       <r>    8.0546    0.0000 </r>
       <r>    8.2823    0.0000 </r>
       <r>    9.0289    0.0000 </r>
       <r>    9.7948    0.0000 </r>
       <r>    9.9738    0.0000 </r>
      </set>
      <set comment="kpoint 13">
       <r>   -5.0396    1.0000 </r>
       <r>   -4.6652    1.0000 </r>
       <r>   -3.8986    1.0000 </r>
       <r>   -3.0450    1.0000 </r>
       <r>   -0.8860    1.0000 </r>
       <r>    0.1919    1.0000 </r>
       <r>    0.4137    1.0000 </r>
       <r>    1.4240    1.0000 </r>
       <r>    1.7168    1.0000 </r>
       <r>    2.8517    1.0000 </r>
       <r>    3.3044    1.0000 </r>
       <r>    3.7457    1.0000 </r>
       <r>    3.8533    1.0000 </r>
       <r>    3.9527    1.0000 </r>
       <r>    4.1116    1.0000 </r>
       <r>    4.8506    1.0000 </r>
       <r>    6.7954    0.0000 </r>
       <r>    7.4311    0.0000 </r>
       <r>    7.7272    0.0000 </r>
       <r>    7.9450    0.0000 </r>
       <r>    8.0525    0.0000 </r>
       <r>    9.3128    0.0000 </r>
       <r>    9.4198    0.0000 </r>
       <r>    9.7306    0.0000 </r>
      </set>
      <set comment="kpoint 14">
       <r>   -4.9596    1.0000 </r>
       <r>   -4.8197    1.0000 </r>
       <r>   -3.6456    1.0000 </r>
       <r>   -3.2726    1.0000 </r>
       <r>   -0.6286    1.0000 </r>
       <r>   -0.3174    1.0000 </r>
       <r>    0.8196    1.0000 </r>
       <r>    1.6713    1.0000 </r>
       <r>    1.7454    1.0000 </r>
       <r>    2.1510    1.0000 </r>
       <r>    3.3100    1.0000 </r>
       <r>    3.5935    1.0000 </r>
       <r>    3.7248    1.0000 </r>
       <r>    4.1319    1.0000 </r>
       <r>    4.7851    1.0000 </r>
       <r>    4.8467    1.0000 </r>
       <r>    6.9420    0.0000 </r>
       <r>    6.9536    0.0000 </r>
       <r>    7.5638    0.0000 </r>
       <r>    7.8716    0.0000 </r>
       <r>    8.6492    0.0000 </r>
       <r>    8.8738    0.0000 </r>
       <r>    9.2497    0.0000 </r>
       <r>    9.3101    0.0000 </r>
      </set>
      <set comment="kpoint 15">
       <r>   -4.5380    1.0000 </r>
       <r>   -3.8833    1.0000 </r>
       <r>   -3.7853    1.0000 </r>
       <r>   -2.3173    1.0000 </r>
       <r>   -1.6010    1.0000 </r>
       <r>   -0.7459    1.0000 </r>
       <r>    0.1752    1.0000 </r>
       <r>    0.1970    1.0000 </r>
       <r>    1.6613    1.0000 </r>
       <r>    2.9071    1.0000 </r>
       <r>    3.1315    1.0000 </r>
       <r>    3.2155    1.0000 </r>
       <r>    3.2368    1.0000 </r>
       <r>    4.1622    1.0000 </r>
       <r>    4.3174    1.0000 </r>
       <r>    4.3466    1.0000 </r>
       <r>    6.4769    0.0000 </r>
       <r>    6.8381    0.0000 </r>
       <r>    7.4619    0.0000 </r>
       <r>    7.9866    0.0000 </r>
       <r>    8.0709    0.0000 </r>
       <r>    9.0881    0.0000 </r>
       <r>    9.1220    0.0000 </r>
       <r>    9.6459    0.0000 </r>
      </set>
      <set comment="kpoint 16">
       <r>   -4.4830    1.0000 </r>
       <r>   -4.1751    1.0000 </r>
       <r>   -3.3553    1.0000 </r>
       <r>   -2.7411    1.0000 </r>
       <r>   -1.1872    1.0000 </r>
       <r>   -0.5544    1.0000 </r>
       <r>   -0.5339    1.0000 </r>
       <r>    0.6132    1.0000 </r>
       <r>    1.4511    1.0000 </r>
       <r>    2.9515    1.0000 </r>
       <r>    3.0748    1.0000 </r>
       <r>    3.3805    1.0000 </r>
       <r>    3.5228    1.0000 </r>
       <r>    3.8923    1.0000 </r>
       <r>    4.0436    1.0000 </r>
       <r>    4.6479    1.0000 </r>
       <r>    6.4371    0.0000 </r>
       <r>    7.1100    0.0000 </r>
       <r>    7.1777    0.0000 </r>
       <r>    7.6766    0.0000 </r>
       <r>    7.7407    0.0000 </r>
       <r>    9.2169    0.0000 </r>
       <r>    9.2456    0.0000 </r>
       <r>   10.0767    0.0000 </r>
      </set>
      <set comment="kpoint 17">
       <r>   -4.4321    1.0000 </r>
       <r>   -4.2632    1.0000 </r>
       <r>   -3.2931    1.0000 </r>
       <r>   -2.7284    1.0000 </r>
       <r>   -1.2292    1.0000 </r>
       <r>   -0.8876    1.0000 </r>
       <r>   -0.2338    1.0000 </r>
       <r>    0.6784    1.0000 </r>
       <r>    1.9176    1.0000 </r>
       <r>    2.2911    1.0000 </r>
       <r>    3.0086    1.0000 </r>
       <r>    3.0801    1.0000 </r>
       <r>    3.5009    1.0000 </r>
       <r>    3.9167    1.0000 </r>
       <r>    4.6397    1.0000 </r>
       <r>    4.6674    1.0000 </r>
       <r>    6.6534    0.0000 </r>
       <r>    7.0416    0.0000 </r>
       <r>    7.4022    0.0000 </r>
       <r>    7.6483    0.0000 </r>
       <r>    7.7341    0.0000 </r>
       <r>    8.4950    0.0000 </r>
       <r>    9.1737    0.0000 </r>
       <r>    9.2257    0.0000 </r>
      </set>
      <set comment="kpoint 18">
       <r>   -3.9778    1.0000 </r>
       <r>   -3.6358    1.0000 </r>
       <r>   -3.2325    1.0000 </r>
       <r>   -2.5438    1.0000 </r>
       <r>   -1.4069    1.0000 </r>
       <r>   -1.0776    1.0000 </r>
       <r>   -0.6787    1.0000 </r>
       <r>   -0.6608    1.0000 </r>
       <r>    2.0712    1.0000 </r>
       <r>    2.6256    1.0000 </r>
       <r>    3.1011    1.0000 </r>
       <r>    3.1173    1.0000 </r>
       <r>    3.2714    1.0000 </r>
       <r>    3.7011    1.0000 </r>
       <r>    4.2113    1.0000 </r>
       <r>    4.2338    1.0000 </r>
       <r>    6.6258    0.0000 </r>
       <r>    6.6986    0.0000 </r>
       <r>    7.4626    0.0000 </r>
       <r>    7.9411    0.0000 </r>
       <r>    7.9611    0.0000 </r>
       <r>    8.1130    0.0000 </r>
       <r>    9.1801    0.0000 </r>
       <r>    9.3689    0.0000 </r>
      </set>
      <set comment="kpoint 19">
       <r>   -3.8717    1.0000 </r>
       <r>   -3.8375    1.0000 </r>
       <r>   -3.0014    1.0000 </r>
       <r>   -2.7039    1.0000 </r>
       <r>   -1.3267    1.0000 </r>
       <r>   -1.1236    1.0000 </r>
       <r>   -0.9553    1.0000 </r>
       <r>   -0.3217    1.0000 </r>
       <r>    1.8341    1.0000 </r>
       <r>    2.8176    1.0000 </r>
       <r>    2.9425    1.0000 </r>
       <r>    2.9586    1.0000 </r>
       <r>    3.4010    1.0000 </r>
       <r>    3.7870    1.0000 </r>
       <r>    4.2701    1.0000 </r>
       <r>    4.5385    1.0000 </r>
       <r>    6.3733    0.0000 </r>
       <r>    6.6940    0.0000 </r>
       <r>    7.0564    0.0000 </r>
       <r>    7.5125    0.0000 </r>
       <r>    7.5776    0.0000 </r>
       <r>    9.0862    0.0000 </r>
       <r>    9.1875    0.0000 </r>
       <r>    9.7523    0.0000 </r>
      </set>
      <set comment="kpoint 20">
       <r>   -3.9596    1.0000 </r>
       <r>   -3.6242    1.0000 </r>
       <r>   -3.3598    1.0000 </r>
       <r>   -2.0782    1.0000 </r>
       <r>   -1.9676    1.0000 </r>
       <r>   -0.9829    1.0000 </r>
       <r>   -0.9278    1.0000 </r>
       <r>   -0.2338    1.0000 </r>
       <r>    2.3117    1.0000 </r>
       <r>    2.3885    1.0000 </r>
       <r>    2.6575    1.0000 </r>
       <r>    2.9606    1.0000 </r>
       <r>    3.3923    1.0000 </r>
       <r>    3.7969    1.0000 </r>
       <r>    4.4905    1.0000 </r>
       <r>    4.5349    1.0000 </r>
       <r>    6.5220    0.0000 </r>
       <r>    6.8832    0.0000 </r>
       <r>    7.0486    0.0000 </r>
       <r>    7.3908    0.0000 </r>
       <r>    7.5505    0.0000 </r>
       <r>    8.9225    0.0000 </r>
       <r>    9.0753    0.0000 </r>
       <r>    9.1838    0.0000 </r>
      </set>
      <set comment="kpoint 21">
       <r>   -6.0843    1.0000 </r>
       <r>   -5.3700    1.0000 </r>
       <r>   -5.2108    1.0000 </r>
       <r>   -3.7777    1.0000 </r>
       <r>   -1.1410    1.0000 </r>
       <r>    1.6153    1.0000 </r>
       <r>    2.0630    1.0000 </r>
       <r>    4.0040    1.0000 </r>
       <r>    4.2927    1.0000 </r>
       <r>    4.4624    1.0000 </r>
       <r>    4.5783    1.0000 </r>
       <r>    4.7174    1.0000 </r>
       <r>    5.1698    1.0000 </r>
       <r>    5.2361    1.0000 </r>
       <r>    5.5305    1.0000 </r>
       <r>    5.6033    1.0000 </r>
       <r>    7.7320    0.0000 </r>
       <r>    8.1069    0.0000 </r>
       <r>    8.2421    0.0000 </r>
       <r>    8.2524    0.0000 </r>
       <r>    8.5467    0.0000 </r>
       <r>    8.6177    0.0000 </r>
       <r>    8.9967    0.0000 </r>
       <r>    9.0608    0.0000 </r>
      </set>
      <set comment="kpoint 22">
       <r>   -5.9662    1.0000 </r>
       <r>   -5.7803    1.0000 </r>
       <r>   -4.6220    1.0000 </r>
       <r>   -4.1910    1.0000 </r>
       <r>   -0.5079    1.0000 </r>
       <r>    0.2657    1.0000 </r>
       <r>    3.5335    1.0000 </r>
       <r>    3.9733    1.0000 </r>
       <r>    4.3943    1.0000 </r>
       <r>    4.4213    1.0000 </r>
       <r>    4.5590    1.0000 </r>
       <r>    4.6455    1.0000 </r>
       <r>    4.6639    1.0000 </r>
       <r>    5.1930    1.0000 </r>
       <r>    5.3132    1.0000 </r>
       <r>    5.5416    1.0000 </r>
       <r>    7.8065    0.0000 </r>
       <r>    7.9051    0.0000 </r>
       <r>    8.0390    0.0000 </r>
       <r>    8.5359    0.0000 </r>
       <r>    8.7220    0.0000 </r>
       <r>    8.9244    0.0000 </r>
       <r>    9.0276    0.0000 </r>
       <r>    9.0736    0.0000 </r>
      </set>
      <set comment="kpoint 23">
       <r>   -6.0218    1.0000 </r>
       <r>   -5.6708    1.0000 </r>
       <r>   -4.8140    1.0000 </r>
       <r>   -4.0174    1.0000 </r>
       <r>   -0.7857    1.0000 </r>
       <r>    0.6616    1.0000 </r>
       <r>    3.1025    1.0000 </r>
       <r>    4.0664    1.0000 </r>
       <r>    4.1501    1.0000 </r>
       <r>    4.3842    1.0000 </r>
       <r>    4.6877    1.0000 </r>
       <r>    4.8452    1.0000 </r>
       <r>    4.9150    1.0000 </r>
       <r>    5.0670    1.0000 </r>
       <r>    5.2919    1.0000 </r>
       <r>    5.6824    1.0000 </r>
       <r>    7.7666    0.0000 </r>
       <r>    7.9857    0.0000 </r>
       <r>    8.1961    0.0000 </r>
       <r>    8.4627    0.0000 </r>
       <r>    8.4654    0.0000 </r>
       <r>    8.6598    0.0000 </r>
       <r>    8.8586    0.0000 </r>
       <r>    9.0046    0.0000 </r>
      </set>
      <set comment="kpoint 24">
       <r>   -5.9500    1.0000 </r>
       <r>   -5.1663    1.0000 </r>
       <r>   -5.1496    1.0000 </r>
       <r>   -3.6317    1.0000 </r>
       <r>   -1.0951    1.0000 </r>
       <r>    1.8010    1.0000 </r>
       <r>    1.8141    1.0000 </r>
       <r>    3.3149    1.0000 </r>
       <r>    3.7209    1.0000 </r>
       <r>    3.7304    1.0000 </r>
       <r>    4.1865    1.0000 </r>
       <r>    4.3382    1.0000 </r>
       <r>    4.8309    1.0000 </r>
       <r>    4.8450    1.0000 </r>
       <r>    5.0063    1.0000 </r>
       <r>    5.6498    1.0000 </r>
       <r>    8.2382    0.0000 </r>
       <r>    8.3760    0.0000 </r>
       <r>    8.3841    0.0000 </r>
       <r>    8.5307    0.0000 </r>
       <r>    8.6451    0.0000 </r>
       <r>    8.6617    0.0000 </r>
       <r>    8.8938    0.0000 </r>
       <r>    9.1770    0.0000 </r>
      </set>
      <set comment="kpoint 25">
       <r>   -5.8600    1.0000 </r>
       <r>   -5.5922    1.0000 </r>
       <r>   -4.5856    1.0000 </r>
       <r>   -3.9674    1.0000 </r>
       <r>   -0.5984    1.0000 </r>
       <r>    0.4925    1.0000 </r>
       <r>    3.1065    1.0000 </r>
       <r>    3.3492    1.0000 </r>
       <r>    3.4722    1.0000 </r>
       <r>    3.9842    1.0000 </r>
       <r>    4.2007    1.0000 </r>
       <r>    4.2756    1.0000 </r>
       <r>    4.5160    1.0000 </r>
       <r>    5.0072    1.0000 </r>
       <r>    5.1213    1.0000 </r>
       <r>    5.2200    1.0000 </r>
       <r>    8.0715    0.0000 </r>
       <r>    8.1354    0.0000 </r>
       <r>    8.2724    0.0000 </r>
       <r>    8.3612    0.0000 </r>
       <r>    8.9275    0.0000 </r>
       <r>    8.9620    0.0000 </r>
       <r>    9.1099    0.0000 </r>
       <r>    9.2051    0.0000 </r>
      </set>
      <set comment="kpoint 26">
       <r>   -5.6795    1.0000 </r>
       <r>   -4.9286    1.0000 </r>
       <r>   -4.8581    1.0000 </r>
       <r>   -3.3643    1.0000 </r>
       <r>   -1.0196    1.0000 </r>
       <r>    1.4233    1.0000 </r>
       <r>    1.6894    1.0000 </r>
       <r>    2.4478    1.0000 </r>
       <r>    2.9385    1.0000 </r>
       <r>    3.1856    1.0000 </r>
       <r>    3.3665    1.0000 </r>
       <r>    3.7729    1.0000 </r>
       <r>    4.1968    1.0000 </r>
       <r>    4.4460    1.0000 </r>
       <r>    4.6790    1.0000 </r>
       <r>    5.4459    1.0000 </r>
       <r>    7.7321    0.0000 </r>
       <r>    8.1908    0.0000 </r>
       <r>    8.5296    0.0000 </r>
       <r>    8.7971    0.0000 </r>
       <r>    8.8211    0.0000 </r>
       <r>    9.1301    0.0000 </r>
       <r>    9.2168    0.0000 </r>
       <r>    9.4366    0.0000 </r>
      </set>
      <set comment="kpoint 27">
       <r>   -5.6024    1.0000 </r>
       <r>   -5.3006    1.0000 </r>
       <r>   -4.3653    1.0000 </r>
       <r>   -3.6674    1.0000 </r>
       <r>   -0.5932    1.0000 </r>
       <r>    0.5480    1.0000 </r>
       <r>    2.1729    1.0000 </r>
       <r>    2.3752    1.0000 </r>
       <r>    2.9377    1.0000 </r>
       <r>    3.2229    1.0000 </r>
       <r>    3.8899    1.0000 </r>
       <r>    3.9097    1.0000 </r>
       <r>    3.9781    1.0000 </r>
       <r>    4.3167    1.0000 </r>
       <r>    4.9065    1.0000 </r>
       <r>    4.9269    1.0000 </r>
       <r>    7.8647    0.0000 </r>
       <r>    7.9758    0.0000 </r>
       <r>    8.3112    0.0000 </r>
       <r>    8.4502    0.0000 </r>
       <r>    9.1667    0.0000 </r>
       <r>    9.3365    0.0000 </r>
       <r>    9.4459    0.0000 </r>
       <r>    9.9559    0.0000 </r>
      </set>
      <set comment="kpoint 28">
       <r>   -5.5780    1.0000 </r>
       <r>   -5.3484    1.0000 </r>
       <r>   -4.2827    1.0000 </r>
       <r>   -3.7424    1.0000 </r>
       <r>   -0.4865    1.0000 </r>
       <r>    0.3889    1.0000 </r>
       <r>    2.4897    1.0000 </r>
       <r>    2.6421    1.0000 </r>
       <r>    2.6523    1.0000 </r>
       <r>    2.7284    1.0000 </r>
       <r>    3.7449    1.0000 </r>
       <r>    4.0496    1.0000 </r>
       <r>    4.3074    1.0000 </r>
       <r>    4.3902    1.0000 </r>
       <r>    4.7628    1.0000 </r>
       <r>    5.0530    1.0000 </r>
       <r>    7.4935    0.0000 </r>
       <r>    8.0526    0.0000 </r>
       <r>    8.2176    0.0000 </r>
       <r>    8.7930    0.0000 </r>
       <r>    8.8445    0.0000 </r>
       <r>    9.2258    0.0000 </r>
       <r>    9.6198    0.0000 </r>
       <r>    9.6357    0.0000 </r>
      </set>
      <set comment="kpoint 29">
       <r>   -5.2821    1.0000 </r>
       <r>   -4.5656    1.0000 </r>
       <r>   -4.4525    1.0000 </r>
       <r>   -2.9757    1.0000 </r>
       <r>   -1.0596    1.0000 </r>
       <r>    0.5877    1.0000 </r>
       <r>    1.1974    1.0000 </r>
       <r>    1.7743    1.0000 </r>
       <r>    1.9522    1.0000 </r>
       <r>    2.7386    1.0000 </r>
       <r>    3.2565    1.0000 </r>
       <r>    3.3741    1.0000 </r>
       <r>    3.6290    1.0000 </r>
       <r>    4.0053    1.0000 </r>
       <r>    4.4232    1.0000 </r>
       <r>    5.1087    1.0000 </r>
       <r>    7.0855    0.0000 </r>
       <r>    7.7856    0.0000 </r>
       <r>    8.4181    0.0000 </r>
       <r>    8.5087    0.0000 </r>
       <r>    8.8049    0.0000 </r>
       <r>    9.0255    0.0000 </r>
       <r>    9.0951    0.0000 </r>
       <r>    9.7024    0.0000 </r>
      </set>
      <set comment="kpoint 30">
       <r>   -5.2148    1.0000 </r>
       <r>   -4.8934    1.0000 </r>
       <r>   -4.0132    1.0000 </r>
       <r>   -3.2693    1.0000 </r>
       <r>   -0.6988    1.0000 </r>
       <r>    0.3163    1.0000 </r>
       <r>    1.0219    1.0000 </r>
       <r>    1.6494    1.0000 </r>
       <r>    2.2275    1.0000 </r>
       <r>    2.6801    1.0000 </r>
       <r>    3.3704    1.0000 </r>
       <r>    3.6381    1.0000 </r>
       <r>    3.6639    1.0000 </r>
       <r>    3.8939    1.0000 </r>
       <r>    4.5681    1.0000 </r>
       <r>    4.6450    1.0000 </r>
       <r>    7.4469    0.0000 </r>
       <r>    7.9053    0.0000 </r>
       <r>    8.1004    0.0000 </r>
       <r>    8.2274    0.0000 </r>
       <r>    8.6644    0.0000 </r>
       <r>    9.1186    0.0000 </r>
       <r>    9.6242    0.0000 </r>
       <r>   10.0449    0.0000 </r>
      </set>
      <set comment="kpoint 31">
       <r>   -5.1738    1.0000 </r>
       <r>   -4.9728    1.0000 </r>
       <r>   -3.8816    1.0000 </r>
       <r>   -3.3873    1.0000 </r>
       <r>   -0.5550    1.0000 </r>
       <r>    0.0254    1.0000 </r>
       <r>    1.4761    1.0000 </r>
       <r>    1.9124    1.0000 </r>
       <r>    1.9229    1.0000 </r>
       <r>    2.1487    1.0000 </r>
       <r>    3.2727    1.0000 </r>
       <r>    3.6781    1.0000 </r>
       <r>    3.9087    1.0000 </r>
       <r>    4.0219    1.0000 </r>
       <r>    4.4538    1.0000 </r>
       <r>    4.9240    1.0000 </r>
       <r>    7.1670    0.0000 </r>
       <r>    7.6056    0.0000 </r>
       <r>    8.0379    0.0000 </r>
       <r>    8.5237    0.0000 </r>
       <r>    8.9971    0.0000 </r>
       <r>    9.0341    0.0000 </r>
       <r>    9.6553    0.0000 </r>
       <r>    9.7111    0.0000 </r>
      </set>
      <set comment="kpoint 32">
       <r>   -4.7749    1.0000 </r>
       <r>   -4.0782    1.0000 </r>
       <r>   -3.9920    1.0000 </r>
       <r>   -2.4949    1.0000 </r>
       <r>   -1.3870    1.0000 </r>
       <r>   -0.3360    1.0000 </r>
       <r>    0.4571    1.0000 </r>
       <r>    0.7910    1.0000 </r>
       <r>    1.5699    1.0000 </r>
       <r>    2.8578    1.0000 </r>
       <r>    3.0588    1.0000 </r>
       <r>    3.0744    1.0000 </r>
       <r>    3.3270    1.0000 </r>
       <r>    3.6582    1.0000 </r>
       <r>    4.2101    1.0000 </r>
       <r>    4.7176    1.0000 </r>
       <r>    6.7060    0.0000 </r>
       <r>    7.4573    0.0000 </r>
       <r>    7.8558    0.0000 </r>
       <r>    8.3390    0.0000 </r>
       <r>    8.5572    0.0000 </r>
       <r>    8.9860    0.0000 </r>
       <r>    9.0927    0.0000 </r>
       <r>    9.9278    0.0000 </r>
      </set>
      <set comment="kpoint 33">
       <r>   -4.7095    1.0000 </r>
       <r>   -4.4066    1.0000 </r>
       <r>   -3.5357    1.0000 </r>
       <r>   -2.8634    1.0000 </r>
       <r>   -1.0246    1.0000 </r>
       <r>   -0.2716    1.0000 </r>
       <r>   -0.0471    1.0000 </r>
       <r>    1.1541    1.0000 </r>
       <r>    1.4325    1.0000 </r>
       <r>    2.7491    1.0000 </r>
       <r>    3.0065    1.0000 </r>
       <r>    3.1814    1.0000 </r>
       <r>    3.3689    1.0000 </r>
       <r>    3.9789    1.0000 </r>
       <r>    4.1472    1.0000 </r>
       <r>    4.4245    1.0000 </r>
       <r>    6.9681    0.0000 </r>
       <r>    7.6796    0.0000 </r>
       <r>    7.7982    0.0000 </r>
       <r>    7.9919    0.0000 </r>
       <r>    8.0025    0.0000 </r>
       <r>    9.0412    0.0000 </r>
       <r>    9.7605    0.0000 </r>
       <r>    9.7997    0.0000 </r>
      </set>
      <set comment="kpoint 34">
       <r>   -4.6721    1.0000 </r>
       <r>   -4.4747    1.0000 </r>
       <r>   -3.4575    1.0000 </r>
       <r>   -2.9077    1.0000 </r>
       <r>   -0.9818    1.0000 </r>
       <r>   -0.6069    1.0000 </r>
       <r>    0.3356    1.0000 </r>
       <r>    1.0415    1.0000 </r>
       <r>    1.8958    1.0000 </r>
       <r>    2.1085    1.0000 </r>
       <r>    2.9249    1.0000 </r>
       <r>    3.1147    1.0000 </r>
       <r>    3.5952    1.0000 </r>
       <r>    3.7834    1.0000 </r>
       <r>    4.1895    1.0000 </r>
       <r>    4.7867    1.0000 </r>
       <r>    7.2222    0.0000 </r>
       <r>    7.2575    0.0000 </r>
       <r>    7.8505    0.0000 </r>
       <r>    8.2563    0.0000 </r>
       <r>    8.4693    0.0000 </r>
       <r>    8.5410    0.0000 </r>
       <r>    9.1388    0.0000 </r>
       <r>    9.4848    0.0000 </r>
      </set>
      <set comment="kpoint 35">
       <r>   -4.2017    1.0000 </r>
       <r>   -3.6413    1.0000 </r>
       <r>   -3.4780    1.0000 </r>
       <r>   -2.2936    1.0000 </r>
       <r>   -1.6051    1.0000 </r>
       <r>   -0.9800    1.0000 </r>
       <r>   -0.3524    1.0000 </r>
       <r>   -0.2096    1.0000 </r>
       <r>    1.8219    1.0000 </r>
       <r>    2.8082    1.0000 </r>
       <r>    2.8859    1.0000 </r>
       <r>    3.0147    1.0000 </r>
       <r>    3.0824    1.0000 </r>
       <r>    3.3795    1.0000 </r>
       <r>    4.1189    1.0000 </r>
       <r>    4.3501    1.0000 </r>
       <r>    6.7902    0.0000 </r>
       <r>    7.2553    0.0000 </r>
       <r>    7.5026    0.0000 </r>
       <r>    8.2985    0.0000 </r>
       <r>    8.3622    0.0000 </r>
       <r>    8.8092    0.0000 </r>
       <r>    8.8960    0.0000 </r>
       <r>    9.0174    0.0000 </r>
      </set>
      <set comment="kpoint 36">
       <r>   -4.1151    1.0000 </r>
       <r>   -3.9455    1.0000 </r>
       <r>   -2.9443    1.0000 </r>
       <r>   -2.7998    1.0000 </r>
       <r>   -1.1360    1.0000 </r>
       <r>   -1.0189    1.0000 </r>
       <r>   -0.8648    1.0000 </r>
       <r>    0.1538    1.0000 </r>
       <r>    1.6504    1.0000 </r>
       <r>    2.6990    1.0000 </r>
       <r>    2.7693    1.0000 </r>
       <r>    2.9907    1.0000 </r>
       <r>    3.2132    1.0000 </r>
       <r>    3.7791    1.0000 </r>
       <r>    4.0332    1.0000 </r>
       <r>    4.3655    1.0000 </r>
       <r>    6.5819    0.0000 </r>
       <r>    7.1520    0.0000 </r>
       <r>    7.6116    0.0000 </r>
       <r>    7.8095    0.0000 </r>
       <r>    7.9670    0.0000 </r>
       <r>    9.0016    0.0000 </r>
       <r>    9.5248    0.0000 </r>
       <r>    9.9980    0.0000 </r>
      </set>
      <set comment="kpoint 37">
       <r>   -4.1404    1.0000 </r>
       <r>   -3.8732    1.0000 </r>
       <r>   -3.2527    1.0000 </r>
       <r>   -2.3134    1.0000 </r>
       <r>   -1.6601    1.0000 </r>
       <r>   -0.9976    1.0000 </r>
       <r>   -0.5972    1.0000 </r>
       <r>    0.1465    1.0000 </r>
       <r>    2.1526    1.0000 </r>
       <r>    2.4264    1.0000 </r>
       <r>    2.6004    1.0000 </r>
       <r>    2.7158    1.0000 </r>
       <r>    3.2724    1.0000 </r>
       <r>    3.6582    1.0000 </r>
       <r>    4.0098    1.0000 </r>
       <r>    4.6196    1.0000 </r>
       <r>    7.0538    0.0000 </r>
       <r>    7.3972    0.0000 </r>
       <r>    7.4372    0.0000 </r>
       <r>    7.7654    0.0000 </r>
       <r>    8.0912    0.0000 </r>
       <r>    8.5504    0.0000 </r>
       <r>    9.1782    0.0000 </r>
       <r>    9.2947    0.0000 </r>
      </set>
      <set comment="kpoint 38">
       <r>   -3.7210    1.0000 </r>
       <r>   -3.6918    1.0000 </r>
       <r>   -2.9063    1.0000 </r>
       <r>   -2.7973    1.0000 </r>
       <r>   -1.1303    1.0000 </r>
       <r>   -0.9961    1.0000 </r>
       <r>   -0.9645    1.0000 </r>
       <r>   -0.9050    1.0000 </r>
       <r>    2.3071    1.0000 </r>
       <r>    2.4225    1.0000 </r>
       <r>    2.7926    1.0000 </r>
       <r>    2.8522    1.0000 </r>
       <r>    3.1205    1.0000 </r>
       <r>    3.3181    1.0000 </r>
       <r>    4.0951    1.0000 </r>
       <r>    4.2038    1.0000 </r>
       <r>    7.0824    0.0000 </r>
       <r>    7.1561    0.0000 </r>
       <r>    7.6352    0.0000 </r>
       <r>    7.9454    0.0000 </r>
       <r>    8.2421    0.0000 </r>
       <r>    8.3092    0.0000 </r>
       <r>    8.9053    0.0000 </r>
       <r>    8.9593    0.0000 </r>
      </set>
      <set comment="kpoint 39">
       <r>   -3.7865    1.0000 </r>
       <r>   -3.5125    1.0000 </r>
       <r>   -3.2964    1.0000 </r>
       <r>   -2.2596    1.0000 </r>
       <r>   -1.7708    1.0000 </r>
       <r>   -1.1347    1.0000 </r>
       <r>   -0.6507    1.0000 </r>
       <r>   -0.6175    1.0000 </r>
       <r>    2.0815    1.0000 </r>
       <r>    2.3617    1.0000 </r>
       <r>    2.6313    1.0000 </r>
       <r>    2.9061    1.0000 </r>
       <r>    3.2054    1.0000 </r>
       <r>    3.5721    1.0000 </r>
       <r>    4.0436    1.0000 </r>
       <r>    4.4600    1.0000 </r>
       <r>    6.6103    0.0000 </r>
       <r>    6.9824    0.0000 </r>
       <r>    7.5449    0.0000 </r>
       <r>    7.7039    0.0000 </r>
       <r>    7.9260    0.0000 </r>
       <r>    9.0443    0.0000 </r>
       <r>    9.3320    0.0000 </r>
       <r>    9.5445    0.0000 </r>
      </set>
      <set comment="kpoint 40">
       <r>   -3.7782    1.0000 </r>
       <r>   -3.5637    1.0000 </r>
       <r>   -3.2174    1.0000 </r>
       <r>   -2.3930    1.0000 </r>
       <r>   -1.6213    1.0000 </r>
       <r>   -1.1112    1.0000 </r>
       <r>   -0.7001    1.0000 </r>
       <r>   -0.6646    1.0000 </r>
       <r>    2.0776    1.0000 </r>
       <r>    2.5122    1.0000 </r>
       <r>    2.6485    1.0000 </r>
       <r>    2.8273    1.0000 </r>
       <r>    3.1112    1.0000 </r>
       <r>    3.6908    1.0000 </r>
       <r>    3.9110    1.0000 </r>
       <r>    4.4440    1.0000 </r>
       <r>    6.7352    0.0000 </r>
       <r>    7.0219    0.0000 </r>
       <r>    7.4426    0.0000 </r>
       <r>    7.7910    0.0000 </r>
       <r>    8.0454    0.0000 </r>
       <r>    9.0569    0.0000 </r>
       <r>    9.1494    0.0000 </r>
       <r>    9.3916    0.0000 </r>
      </set>
      <set comment="kpoint 41">
       <r>   -4.2004    1.0000 </r>
       <r>   -3.5851    1.0000 </r>
       <r>   -3.5556    1.0000 </r>
       <r>   -2.1771    1.0000 </r>
       <r>   -1.7387    1.0000 </r>
       <r>   -0.9880    1.0000 </r>
       <r>   -0.3056    1.0000 </r>
       <r>   -0.2095    1.0000 </r>
       <r>    1.9387    1.0000 </r>
       <r>    2.7843    1.0000 </r>
       <r>    2.8314    1.0000 </r>
       <r>    2.8495    1.0000 </r>
       <r>    3.0255    1.0000 </r>
       <r>    3.5389    1.0000 </r>
       <r>    4.0225    1.0000 </r>
       <r>    4.4581    1.0000 </r>
       <r>    6.9322    0.0000 </r>
       <r>    7.1965    0.0000 </r>
       <r>    7.6685    0.0000 </r>
       <r>    8.1947    0.0000 </r>
       <r>    8.3929    0.0000 </r>
       <r>    8.4549    0.0000 </r>
       <r>    8.9873    0.0000 </r>
       <r>    9.0165    0.0000 </r>
      </set>
      <set comment="kpoint 42">
       <r>   -4.1067    1.0000 </r>
       <r>   -3.9428    1.0000 </r>
       <r>   -3.1535    1.0000 </r>
       <r>   -2.4620    1.0000 </r>
       <r>   -1.5203    1.0000 </r>
       <r>   -1.0072    1.0000 </r>
       <r>   -0.6718    1.0000 </r>
       <r>    0.2001    1.0000 </r>
       <r>    1.9837    1.0000 </r>
       <r>    2.5738    1.0000 </r>
       <r>    2.5845    1.0000 </r>
       <r>    2.7064    1.0000 </r>
       <r>    3.3740    1.0000 </r>
       <r>    3.5499    1.0000 </r>
       <r>    4.1156    1.0000 </r>
       <r>    4.5764    1.0000 </r>
       <r>    6.9954    0.0000 </r>
       <r>    7.2294    0.0000 </r>
       <r>    7.5292    0.0000 </r>
       <r>    7.7078    0.0000 </r>
       <r>    7.9751    0.0000 </r>
       <r>    8.8954    0.0000 </r>
       <r>    9.0793    0.0000 </r>
       <r>    9.3511    0.0000 </r>
      </set>
      <set comment="kpoint 43">
       <r>   -4.1488    1.0000 </r>
       <r>   -3.8841    1.0000 </r>
       <r>   -3.0786    1.0000 </r>
       <r>   -2.6872    1.0000 </r>
       <r>   -1.2160    1.0000 </r>
       <r>   -0.9055    1.0000 </r>
       <r>   -0.8615    1.0000 </r>
       <r>    0.0874    1.0000 </r>
       <r>    1.6310    1.0000 </r>
       <r>    2.7210    1.0000 </r>
       <r>    2.8880    1.0000 </r>
       <r>    3.0443    1.0000 </r>
       <r>    3.1258    1.0000 </r>
       <r>    3.8386    1.0000 </r>
       <r>    3.9106    1.0000 </r>
       <r>    4.3421    1.0000 </r>
       <r>    6.5423    0.0000 </r>
       <r>    7.1944    0.0000 </r>
       <r>    7.5159    0.0000 </r>
       <r>    7.9143    0.0000 </r>
       <r>    8.0941    0.0000 </r>
       <r>    8.9986    0.0000 </r>
       <r>    9.6242    0.0000 </r>
       <r>    9.7037    0.0000 </r>
      </set>
      <set comment="kpoint 44">
       <r>   -4.7661    1.0000 </r>
       <r>   -4.1832    1.0000 </r>
       <r>   -3.8785    1.0000 </r>
       <r>   -2.5282    1.0000 </r>
       <r>   -1.3597    1.0000 </r>
       <r>   -0.3947    1.0000 </r>
       <r>    0.6139    1.0000 </r>
       <r>    0.6855    1.0000 </r>
       <r>    1.6675    1.0000 </r>
       <r>    2.6079    1.0000 </r>
       <r>    3.0182    1.0000 </r>
       <r>    3.1161    1.0000 </r>
       <r>    3.3655    1.0000 </r>
       <r>    3.7908    1.0000 </r>
       <r>    4.1208    1.0000 </r>
       <r>    4.8031    1.0000 </r>
       <r>    6.7635    0.0000 </r>
       <r>    7.3999    0.0000 </r>
       <r>    7.9686    0.0000 </r>
       <r>    8.2131    0.0000 </r>
       <r>    8.5671    0.0000 </r>
       <r>    9.1049    0.0000 </r>
       <r>    9.1403    0.0000 </r>
       <r>    9.5625    0.0000 </r>
      </set>
      <set comment="kpoint 45">
       <r>   -4.6252    1.0000 </r>
       <r>   -4.5435    1.0000 </r>
       <r>   -3.3220    1.0000 </r>
       <r>   -3.0531    1.0000 </r>
       <r>   -0.8267    1.0000 </r>
       <r>   -0.6852    1.0000 </r>
       <r>    0.2388    1.0000 </r>
       <r>    1.1235    1.0000 </r>
       <r>    1.7339    1.0000 </r>
       <r>    2.2633    1.0000 </r>
       <r>    2.9183    1.0000 </r>
       <r>    3.0933    1.0000 </r>
       <r>    3.6798    1.0000 </r>
       <r>    3.7073    1.0000 </r>
       <r>    4.2823    1.0000 </r>
       <r>    4.6650    1.0000 </r>
       <r>    7.2187    0.0000 </r>
       <r>    7.4024    0.0000 </r>
       <r>    7.8282    0.0000 </r>
       <r>    8.1449    0.0000 </r>
       <r>    8.1967    0.0000 </r>
       <r>    8.7803    0.0000 </r>
       <r>    9.0633    0.0000 </r>
[...]
       <r>   -3.4740    1.0000 </r>
       <r>   -2.2119    1.0000 </r>
       <r>   -1.8039    1.0000 </r>
       <r>   -0.9835    1.0000 </r>
       <r>   -0.8773    1.0000 </r>
       <r>   -0.3452    1.0000 </r>
       <r>    2.4180    1.0000 </r>
       <r>    2.4295    1.0000 </r>
       <r>    2.6469    1.0000 </r>
       <r>    3.0006    1.0000 </r>
       <r>    3.2665    1.0000 </r>
       <r>    3.9630    1.0000 </r>
       <r>    4.2486    1.0000 </r>
       <r>    4.4392    1.0000 </r>
       <r>    6.5670    0.0000 </r>
       <r>    6.8698    0.0000 </r>
       <r>    7.2858    0.0000 </r>
       <r>    7.6463    0.0000 </r>
       <r>    7.7445    0.0000 </r>
       <r>    8.3079    0.0000 </r>
       <r>    9.0150    0.0000 </r>
       <r>    9.3684    0.0000 </r>
      </set>
      <set comment="kpoint 138">
       <r>   -3.9533    1.0000 </r>
       <r>   -3.7235    1.0000 </r>
       <r>   -3.0448    1.0000 </r>
       <r>   -2.7330    1.0000 </r>
       <r>   -1.1899    1.0000 </r>
       <r>   -1.1122    1.0000 </r>
       <r>   -0.9098    1.0000 </r>
       <r>   -0.5312    1.0000 </r>
       <r>    1.9087    1.0000 </r>
       <r>    2.7869    1.0000 </r>
       <r>    3.0311    1.0000 </r>
       <r>    3.2074    1.0000 </r>
       <r>    3.3382    1.0000 </r>
       <r>    3.6800    1.0000 </r>
       <r>    4.0540    1.0000 </r>
       <r>    4.3712    1.0000 </r>
       <r>    6.4983    0.0000 </r>
       <r>    6.8141    0.0000 </r>
       <r>    7.0632    0.0000 </r>
       <r>    7.8717    0.0000 </r>
       <r>    7.9055    0.0000 </r>
       <r>    8.7110    0.0000 </r>
       <r>    9.1105    0.0000 </r>
       <r>    9.5326    0.0000 </r>
      </set>
      <set comment="kpoint 139">
       <r>   -3.7929    1.0000 </r>
       <r>   -3.4196    1.0000 </r>
       <r>   -3.4086    1.0000 </r>
       <r>   -2.0636    1.0000 </r>
       <r>   -1.9775    1.0000 </r>
       <r>   -1.1475    1.0000 </r>
       <r>   -0.6067    1.0000 </r>
       <r>   -0.5933    1.0000 </r>
       <r>    2.1719    1.0000 </r>
       <r>    2.1744    1.0000 </r>
       <r>    2.6184    1.0000 </r>
       <r>    2.9628    1.0000 </r>
       <r>    3.3718    1.0000 </r>
       <r>    3.3872    1.0000 </r>
       <r>    4.1430    1.0000 </r>
       <r>    4.4588    1.0000 </r>
       <r>    6.5233    0.0000 </r>
       <r>    6.9600    0.0000 </r>
       <r>    7.6457    0.0000 </r>
       <r>    7.7207    0.0000 </r>
       <r>    7.7355    0.0000 </r>
       <r>    9.0085    0.0000 </r>
       <r>    9.3186    0.0000 </r>
       <r>   10.1881    0.0000 </r>
      </set>
      <set comment="kpoint 140">
       <r>   -3.7564    1.0000 </r>
       <r>   -3.6366    1.0000 </r>
       <r>   -3.0716    1.0000 </r>
       <r>   -2.6038    1.0000 </r>
       <r>   -1.3714    1.0000 </r>
       <r>   -1.0477    1.0000 </r>
       <r>   -0.8053    1.0000 </r>
       <r>   -0.7924    1.0000 </r>
       <r>    2.1535    1.0000 </r>
       <r>    2.6197    1.0000 </r>
       <r>    2.7239    1.0000 </r>
       <r>    2.8016    1.0000 </r>
       <r>    2.9687    1.0000 </r>
       <r>    3.6328    1.0000 </r>
       <r>    3.8950    1.0000 </r>
       <r>    4.3538    1.0000 </r>
       <r>    6.9539    0.0000 </r>
       <r>    7.2148    0.0000 </r>
       <r>    7.2878    0.0000 </r>
       <r>    8.0061    0.0000 </r>
       <r>    8.2254    0.0000 </r>
       <r>    8.5221    0.0000 </r>
       <r>    8.9809    0.0000 </r>
       <r>    9.2703    0.0000 </r>
      </set>
     </set>
    </set>
   </array>
  </eigenvalues>
  <separator name="orbital magnetization" >
   <v name="MAGDIPOLOUT">      0.00000000      0.00000000      0.00000000</v>
  </separator>
  <dos>
   <i name="efermi">      5.84099268 </i>
   <total>
    <array>
     <dimension dim="1">gridpoints</dimension>
     <dimension dim="2">spin</dimension>
     <field>energy</field>
     <field>total</field>
     <field>integrated</field>
     <set>
      <set comment="spin 1">
       <r>    -7.0275     0.0000     0.0000 </r>
       <r>    -6.9635     0.0000     0.0000 </r>
       <r>    -6.8995     0.0000     0.0000 </r>
       <r>    -6.8355     0.0000     0.0000 </r>
       <r>    -6.7715     0.0000     0.0000 </r>
       <r>    -6.7076     0.0000     0.0000 </r>
       <r>    -6.6436     0.0000     0.0000 </r>
       <r>    -6.5796     0.0000     0.0000 </r>
       <r>    -6.5156     0.0000     0.0000 </r>
       <r>    -6.4516     0.0000     0.0000 </r>
       <r>    -6.3877     0.0000     0.0000 </r>
       <r>    -6.3237     0.0000     0.0000 </r>
       <r>    -6.2597     0.0000     0.0000 </r>
       <r>    -6.1957     0.0000     0.0000 </r>
       <r>    -6.1317     0.0616     0.0039 </r>
       <r>    -6.0677     0.4077     0.0300 </r>
       <r>    -6.0038     0.3997     0.0558 </r>
       <r>    -5.9398     0.7287     0.1024 </r>
       <r>    -5.8758     0.5383     0.1369 </r>
       <r>    -5.8118     0.8521     0.1914 </r>
       <r>    -5.7478     0.8436     0.2454 </r>
       <r>    -5.6838     0.5011     0.2776 </r>
       <r>    -5.6199     1.6195     0.3814 </r>
       <r>    -5.5559     1.0100     0.4462 </r>
       <r>    -5.4919     1.3229     0.5309 </r>
       <r>    -5.4279     0.7110     0.5764 </r>
       <r>    -5.3639     0.7071     0.6217 </r>
       <r>    -5.3000     1.5770     0.7226 </r>
       <r>    -5.2360     2.4188     0.8774 </r>
       <r>    -5.1720     1.0378     0.9438 </r>
       <r>    -5.1080     1.6688     1.0506 </r>
       <r>    -5.0440     1.3946     1.1400 </r>
       <r>    -4.9800     1.5131     1.2368 </r>
       <r>    -4.9161     0.9265     1.2962 </r>
       <r>    -4.8521     1.9202     1.4191 </r>
       <r>    -4.7881     1.7368     1.5302 </r>
       <r>    -4.7241     2.4006     1.6841 </r>
       <r>    -4.6601     2.8500     1.8666 </r>
       <r>    -4.5961     1.2341     1.9455 </r>
       <r>    -4.5322     1.9921     2.0730 </r>
       <r>    -4.4682     1.3749     2.1610 </r>
       <r>    -4.4042     2.0219     2.2903 </r>
       <r>    -4.3402     2.1675     2.4290 </r>
       <r>    -4.2762     3.0006     2.6210 </r>
       <r>    -4.2122     1.6849     2.7288 </r>
       <r>    -4.1483     3.5277     2.9545 </r>
       <r>    -4.0843     2.5191     3.1158 </r>
       <r>    -4.0203     2.0859     3.2493 </r>
       <r>    -3.9563     2.8842     3.4338 </r>
       <r>    -3.8923     1.7435     3.5455 </r>
       <r>    -3.8284     3.9002     3.7950 </r>
       <r>    -3.7644     4.5468     4.0861 </r>
       <r>    -3.7004     2.8718     4.2700 </r>
       <r>    -3.6364     4.6193     4.5656 </r>
       <r>    -3.5724     3.3230     4.7785 </r>
       <r>    -3.5084     2.9597     4.9679 </r>
       <r>    -3.4445     1.7591     5.0805 </r>
       <r>    -3.3805     3.0504     5.2757 </r>
       <r>    -3.3165     3.3519     5.4903 </r>
       <r>    -3.2525     3.6703     5.7253 </r>
       <r>    -3.1885     2.6134     5.8929 </r>
       <r>    -3.1245     2.5122     6.0537 </r>
       <r>    -3.0606     2.7839     6.2319 </r>
       <r>    -2.9966     2.1618     6.3703 </r>
       <r>    -2.9326     2.9703     6.5604 </r>
       <r>    -2.8686     1.7103     6.6699 </r>
       <r>    -2.8046     1.6662     6.7765 </r>
       <r>    -2.7407     2.8525     6.9593 </r>
       <r>    -2.6767     2.2020     7.1003 </r>
       <r>    -2.6127     1.8694     7.2199 </r>
       <r>    -2.5487     2.1192     7.3555 </r>
       <r>    -2.4847     2.1864     7.4954 </r>
       <r>    -2.4207     0.7104     7.5409 </r>
       <r>    -2.3568     1.5068     7.6373 </r>
       <r>    -2.2928     1.2366     7.7166 </r>
       <r>    -2.2288     0.8771     7.7728 </r>
       <r>    -2.1648     1.8459     7.8909 </r>
       <r>    -2.1008     1.3217     7.9754 </r>
       <r>    -2.0368     0.3837     8.0000 </r>
       <r>    -1.9729     0.1478     8.0095 </r>
       <r>    -1.9089     0.2221     8.0237 </r>
       <r>    -1.8449     0.0000     8.0237 </r>
       <r>    -1.7809     0.3884     8.0485 </r>
       <r>    -1.7169     1.2135     8.1262 </r>
       <r>    -1.6530     0.9413     8.1865 </r>
       <r>    -1.5890     1.3705     8.2742 </r>
       <r>    -1.5250     2.0533     8.4057 </r>
       <r>    -1.4610     0.8029     8.4571 </r>
       <r>    -1.3970     0.7169     8.5030 </r>
       <r>    -1.3330     2.0531     8.6343 </r>
       <r>    -1.2691     1.4120     8.7247 </r>
       <r>    -1.2051     2.3676     8.8761 </r>
       <r>    -1.1411     3.7744     9.1178 </r>
       <r>    -1.0771     3.9554     9.3710 </r>
       <r>    -1.0131     5.4129     9.7174 </r>
       <r>    -0.9491     6.0926    10.1073 </r>
       <r>    -0.8852     6.2791    10.5091 </r>
       <r>    -0.8212     3.8658    10.7565 </r>
       <r>    -0.7572     3.3009    10.9677 </r>
       <r>    -0.6932     3.8170    11.2120 </r>
       <r>    -0.6292     3.5944    11.4419 </r>
       <r>    -0.5652     3.0343    11.6362 </r>
       <r>    -0.5013     2.6147    11.8036 </r>
       <r>    -0.4373     1.9947    11.9312 </r>
       <r>    -0.3733     2.2069    12.0725 </r>
       <r>    -0.3093     2.6283    12.2408 </r>
       <r>    -0.2453     2.1628    12.3791 </r>
       <r>    -0.1814     2.5490    12.5423 </r>
       <r>    -0.1174     2.5128    12.7031 </r>
       <r>    -0.0534     2.3431    12.8532 </r>
       <r>     0.0106     0.5967    12.8915 </r>
       <r>     0.0746     1.5109    12.9882 </r>
       <r>     0.1386     1.4227    13.0792 </r>
       <r>     0.2025     2.5083    13.2397 </r>
       <r>     0.2665     1.1393    13.3126 </r>
       <r>     0.3305     1.4213    13.4035 </r>
       <r>     0.3945     1.7389    13.5148 </r>
       <r>     0.4585     1.3282    13.5998 </r>
       <r>     0.5225     1.6697    13.7067 </r>
       <r>     0.5864     1.7567    13.8191 </r>
       <r>     0.6504     1.9774    13.9456 </r>
       <r>     0.7144     1.3722    14.0335 </r>
       <r>     0.7784     0.8696    14.0892 </r>
       <r>     0.8424     1.3147    14.1734 </r>
       <r>     0.9063     0.6146    14.2127 </r>
       <r>     0.9703     0.5679    14.2491 </r>
       <r>     1.0343     1.2317    14.3279 </r>
       <r>     1.0983     0.7925    14.3786 </r>
       <r>     1.1623     1.1481    14.4521 </r>
       <r>     1.2263     1.1927    14.5285 </r>
       <r>     1.2902     0.4064    14.5546 </r>
       <r>     1.3542     0.9829    14.6175 </r>
       <r>     1.4182     1.6956    14.7260 </r>
       <r>     1.4822     3.6194    14.9576 </r>
       <r>     1.5462     0.8306    15.0108 </r>
       <r>     1.6102     3.6048    15.2414 </r>
       <r>     1.6741     4.9260    15.5567 </r>
       <r>     1.7381     5.8439    15.9308 </r>
       <r>     1.8021     4.7591    16.2356 </r>
       <r>     1.8661     4.3811    16.5160 </r>
       <r>     1.9301     4.5228    16.8054 </r>
       <r>     1.9940     4.1522    17.0712 </r>
       <r>     2.0580     3.0180    17.2643 </r>
       <r>     2.1220     5.0384    17.5868 </r>
       <r>     2.1860     6.3545    17.9934 </r>
       <r>     2.2500     2.9793    18.1841 </r>
       <r>     2.3140     3.6051    18.4149 </r>
       <r>     2.3779     2.7234    18.5894 </r>
       <r>     2.4419     5.8024    18.9610 </r>
       <r>     2.5059     3.6672    19.1958 </r>
       <r>     2.5699     3.0496    19.3911 </r>
       <r>     2.6339     5.0175    19.7123 </r>
       <r>     2.6979     6.1086    20.1031 </r>
       <r>     2.7618     4.5919    20.3970 </r>
       <r>     2.8258     5.5483    20.7520 </r>
       <r>     2.8898     4.6978    21.0529 </r>
       <r>     2.9538     6.5075    21.4693 </r>
       <r>     3.0178     4.8396    21.7795 </r>
       <r>     3.0817     6.4798    22.1941 </r>
       <r>     3.1457     5.6838    22.5580 </r>
       <r>     3.2097     4.5797    22.8511 </r>
       <r>     3.2737     6.7431    23.2825 </r>
       <r>     3.3377     9.0918    23.8645 </r>
       <r>     3.4017     5.6682    24.2273 </r>
       <r>     3.4656     5.4799    24.5780 </r>
       <r>     3.5296     3.7796    24.8200 </r>
       <r>     3.5936     3.6293    25.0523 </r>
       <r>     3.6576     6.0180    25.4374 </r>
       <r>     3.7216     6.4044    25.8473 </r>
       <r>     3.7856     6.0876    26.2369 </r>
       <r>     3.8495     5.2687    26.5742 </r>
       <r>     3.9135     4.4573    26.8595 </r>
       <r>     3.9775     3.3161    27.0720 </r>
       <r>     4.0415     5.9316    27.4515 </r>
       <r>     4.1055     5.4358    27.7994 </r>
       <r>     4.1695     6.0002    28.1833 </r>
       <r>     4.2334     4.8696    28.4951 </r>
       <r>     4.2974     3.5545    28.7225 </r>
       <r>     4.3614     5.1005    29.0489 </r>
       <r>     4.4254     3.9593    29.3023 </r>
       <r>     4.4894     5.1391    29.6311 </r>
       <r>     4.5533     3.7001    29.8679 </r>
       <r>     4.6173     3.7513    30.1081 </r>
       <r>     4.6813     4.4186    30.3909 </r>
       <r>     4.7453     2.1646    30.5296 </r>
       <r>     4.8093     2.7837    30.7077 </r>
       <r>     4.8733     3.4655    30.9295 </r>
       <r>     4.9372     2.4342    31.0852 </r>
       <r>     5.0012     1.2358    31.1643 </r>
       <r>     5.0652     1.7280    31.2749 </r>
       <r>     5.1292     2.1353    31.4115 </r>
       <r>     5.1932     2.3253    31.5603 </r>
       <r>     5.2572     1.1355    31.6332 </r>
       <r>     5.3211     1.3263    31.7180 </r>
       <r>     5.3851     0.9789    31.7807 </r>
       <r>     5.4491     0.7549    31.8290 </r>
       <r>     5.5131     0.6394    31.8699 </r>
       <r>     5.5771     0.2505    31.8859 </r>
       <r>     5.6410     0.8808    31.9423 </r>
       <r>     5.7050     0.7172    31.9882 </r>
       <r>     5.7690     0.1699    31.9990 </r>
       <r>     5.8330     0.0150    32.0000 </r>
       <r>     5.8970     0.0000    32.0000 </r>
       <r>     5.9610     0.0000    32.0000 </r>
       <r>     6.0249     0.0000    32.0000 </r>
       <r>     6.0889     0.0000    32.0000 </r>
       <r>     6.1529     0.0000    32.0000 </r>
       <r>     6.2169     0.0000    32.0000 </r>
       <r>     6.2809     0.0000    32.0000 </r>
       <r>     6.3449     0.0000    32.0000 </r>
       <r>     6.4088     0.2881    32.0184 </r>
       <r>     6.4728     0.5352    32.0527 </r>
       <r>     6.5368     0.8261    32.1055 </r>
       <r>     6.6008     0.9617    32.1671 </r>
       <r>     6.6648     1.0877    32.2367 </r>
       <r>     6.7287     1.8627    32.3559 </r>
       <r>     6.7927     0.8584    32.4110 </r>
       <r>     6.8567     0.9718    32.4732 </r>
       <r>     6.9207     1.5029    32.5694 </r>
       <r>     6.9847     2.2848    32.7157 </r>
       <r>     7.0487     2.3170    32.8641 </r>
       <r>     7.1126     3.0660    33.0603 </r>
       <r>     7.1766     1.8457    33.1784 </r>
       <r>     7.2406     2.4576    33.3357 </r>
       <r>     7.3046     4.3305    33.6129 </r>
       <r>     7.3686     2.2066    33.7543 </r>
       <r>     7.4326     2.9144    33.9408 </r>
       <r>     7.4965     3.3274    34.1537 </r>
       <r>     7.5605     3.4438    34.3741 </r>
       <r>     7.6245     4.0227    34.6315 </r>
       <r>     7.6885     3.5644    34.8597 </r>
       <r>     7.7525     4.5065    35.1481 </r>
       <r>     7.8165     4.8432    35.4585 </r>
       <r>     7.8804     5.1301    35.7869 </r>
       <r>     7.9444     5.6537    36.1487 </r>
       <r>     8.0084     6.1368    36.5414 </r>
       <r>     8.0724     5.9385    36.9217 </r>
       <r>     8.1364     5.8024    37.2932 </r>
       <r>     8.2003     6.8315    37.7303 </r>
       <r>     8.2643     5.8068    38.1020 </r>
       <r>     8.3283     7.4344    38.5778 </r>
       <r>     8.3923     6.6785    39.0054 </r>
       <r>     8.4563     3.9139    39.2562 </r>
       <r>     8.5203     4.6936    39.5566 </r>
       <r>     8.5842     5.4642    39.9064 </r>
       <r>     8.6482     3.9128    40.1568 </r>
       <r>     8.7122     3.5731    40.3855 </r>
       <r>     8.7762     3.4800    40.6081 </r>
       <r>     8.8402     6.2564    41.0087 </r>
       <r>     8.9042     5.9171    41.3876 </r>
       <r>     8.9681     5.6563    41.7495 </r>
       <r>     9.0321     8.6508    42.3032 </r>
       <r>     9.0961     7.2398    42.7666 </r>
       <r>     9.1601     7.4022    43.2406 </r>
       <r>     9.2241     6.2450    43.6406 </r>
       <r>     9.2880     5.1134    43.9681 </r>
       <r>     9.3520     5.6844    44.3320 </r>
       <r>     9.4160     4.0111    44.5888 </r>
       <r>     9.4800     4.6500    44.8864 </r>
       <r>     9.5440     7.1199    45.3420 </r>
       <r>     9.6080     4.3662    45.6216 </r>
       <r>     9.6719     6.0758    46.0103 </r>
       <r>     9.7359     3.9376    46.2627 </r>
       <r>     9.7999     7.2479    46.7264 </r>
       <r>     9.8639     1.9628    46.8523 </r>
       <r>     9.9279     2.6069    47.0191 </r>
       <r>     9.9919     2.6495    47.1887 </r>
       <r>    10.0558     1.8703    47.3086 </r>
       <r>    10.1198     1.0645    47.3767 </r>
       <r>    10.1838     1.7619    47.4895 </r>
       <r>    10.2478     1.2973    47.5725 </r>
       <r>    10.3118     0.9029    47.6303 </r>
       <r>    10.3757     0.2367    47.6455 </r>
       <r>    10.4397     0.7206    47.6916 </r>
       <r>    10.5037     0.5105    47.7242 </r>
       <r>    10.5677     0.2410    47.7396 </r>
       <r>    10.6317     0.3177    47.7600 </r>
       <r>    10.6957     0.6688    47.8028 </r>
       <r>    10.7596     0.2466    47.8185 </r>
       <r>    10.8236     0.1471    47.8280 </r>
       <r>    10.8876     0.7451    47.8756 </r>
       <r>    10.9516     0.5871    47.9132 </r>
       <r>    11.0156     0.2466    47.9290 </r>
       <r>    11.0796     0.7390    47.9763 </r>
       <r>    11.1435     0.0000    47.9763 </r>
       <r>    11.2075     0.0000    47.9763 </r>
       <r>    11.2715     0.0004    47.9764 </r>
       <r>    11.3355     0.3695    48.0000 </r>
       <r>    11.3995     0.0000    48.0000 </r>
       <r>    11.4635     0.0000    48.0000 </r>
       <r>    11.5274     0.0000    48.0000 </r>
       <r>    11.5914     0.0000    48.0000 </r>
       <r>    11.6554     0.0000    48.0000 </r>
       <r>    11.7194     0.0000    48.0000 </r>
       <r>    11.7834     0.0000    48.0000 </r>
       <r>    11.8473     0.0000    48.0000 </r>
       <r>    11.9113     0.0000    48.0000 </r>
       <r>    11.9753     0.0000    48.0000 </r>
       <r>    12.0393     0.0000    48.0000 </r>
       <r>    12.1033     0.0000    48.0000 </r>
       <r>    12.1673     0.0000    48.0000 </r>
      </set>
     </set>
    </array>
   </total>
  </dos>
 </calculation>
 <structure name="finalpos" >
  <crystal>
   <varray name="basis" >
    <v>      -8.16555356       5.44370237       8.16555356 </v>
    <v>       2.72185119       0.00000000       2.72185119 </v>
    <v>       2.72185119       2.72185119       0.00000000 </v>
   </varray>
   <i name="volume">    161.31810740 </i>
   <varray name="rec_basis" >
    <v>      -0.04592463       0.04592463       0.04592463 </v>
    <v>       0.13777388      -0.13777388       0.22962313 </v>
    <v>       0.09184925       0.27554776      -0.09184925 </v>
   </varray>
  </crystal>
  <varray name="positions" >
   <v>       0.99921671       0.00000000       0.00000000 </v>
   <v>       0.25000000       0.25000000       0.50000000 </v>
   <v>       0.50000000       0.50000000       0.00000000 </v>
   <v>       0.75000000       0.75000000       0.50000000 </v>
   <v>       0.06250000       0.31250000       0.37500000 </v>
   <v>       0.31250000       0.56250000       0.87500000 </v>
   <v>       0.56250000       0.81250000       0.37500000 </v>
   <v>       0.81250000       0.06250000       0.87500000 </v>
  </varray>
 </structure>
</modeling>
