24   
2    

1    
 -0.0008988203127191   0.0046704073455135   0.0087965571260816
   0.0031006500   -0.0163961900   -0.0307133500
  -0.0028249600    0.0036268300   -0.0012386300
   0.0038118600    0.0058941600   -0.0012236700
  -0.0034242900    0.0034596600   -0.0012123700
  -0.0000003800   -0.0000063700    0.0001972600
  -0.0000063700    0.0000036600    0.0000053500
   0.0000073100    0.0000002000    0.0000130400
  -0.0000040200    0.0000028300    0.0000043300
   0.0000029700   -0.0000078900    0.0001939300
  -0.0000016900   -0.0000006800    0.0000058500
  -0.0000067400    0.0000078800    0.0000063800
   0.0000018200    0.0000011000    0.0000062500
   0.0027422200   -0.0019313000    0.0041469200
   0.0000905000    0.0057932000    0.0080900700
  -0.0000548500    0.0000767600    0.0000503400
  -0.0031165100   -0.0021660600    0.0049590000
  -0.0000011400    0.0000008700   -0.0000017400
  -0.0000011300    0.0000006500   -0.0000048600
  -0.0000007600    0.0000003500   -0.0000052600
  -0.0000012000    0.0000007800   -0.0000049400
  -0.0045426700    0.0023012800    0.0069875400
   0.0000542800   -0.0027691100    0.0034171700
   0.0000408000    0.0000210200    0.0000116700
   0.0041343000    0.0020863900    0.0063097300

1    
  0.0008988203127191  -0.0046704073455135  -0.0087965571260816
  -0.0031151100    0.0163592500    0.0307131200
   0.0027388100   -0.0035929900    0.0012096700
  -0.0038184900   -0.0058965200    0.0012290500
   0.0035152500   -0.0034954700    0.0012360100
   0.0000005200    0.0000058500   -0.0001924000
   0.0000060000   -0.0000034600   -0.0000043200
  -0.0000067800   -0.0000000300   -0.0000118000
   0.0000039600   -0.0000027000   -0.0000040200
  -0.0000032400    0.0000084200   -0.0001988000
   0.0000021400    0.0000007800   -0.0000066500
   0.0000069400   -0.0000083300   -0.0000071100
  -0.0000018700   -0.0000013200   -0.0000075900
  -0.0026903500    0.0018811600   -0.0040960500
  -0.0000828200   -0.0055222300   -0.0077222300
   0.0000534500   -0.0000744700   -0.0000495700
   0.0030408400    0.0020955200   -0.0048580600
   0.0000011100   -0.0000007400    0.0000016400
   0.0000010300   -0.0000005400    0.0000049000
   0.0000007300   -0.0000004600    0.0000053200
   0.0000010900   -0.0000007600    0.0000048800
   0.0047510900   -0.0023879200   -0.0072770900
  -0.0000577300    0.0028069100   -0.0034291500
  -0.0000413200   -0.0000201700   -0.0000104900
  -0.0043052500   -0.0021497700   -0.0065292600
