phonopy:
  version: "2.33.3"
  calculator: vasp
  frequency_unit_conversion_factor: 15.633302
  symmetry_tolerance: 1.00000e-05
  configuration:
    dim: "2 -1 0 2 1 0 0 0 3"

physical_unit:
  atomic_mass: "AMU"
  length: "angstrom"
  force: "eV/angstrom"
  force_constants: "eV/angstrom^2"

space_group:
  type: "P6_3/mmc"
  number: 194
  Hall_symbol: "-P 6c 2c"

supercell_matrix:
- [   2,  -1,   0 ]
- [   2,   1,   0 ]
- [   0,   0,   3 ]

primitive_cell:
  lattice:
  - [     1.954294045411208,     0.000000000000000,     0.000000000000000 ] # a
  - [    -0.977147022705604,     1.692468289790766,     0.000000000000000 ] # b
  - [     0.000000000000000,     0.000000000000000,     3.187707815149744 ] # c
  points:
  - symbol: He # 1
    coordinates: [  0.333333333333333,  0.666666666666666,  0.250000000000000 ]
    mass: 4.002602
  - symbol: He # 2
    coordinates: [  0.666666666666667,  0.333333333333333,  0.750000000000000 ]
    mass: 4.002602
  reciprocal_lattice: # without 2pi
  - [     0.511693725080960,     0.295426509918135,     0.000000000000000 ] # a*
  - [     0.000000000000000,     0.590853019836269,     0.000000000000000 ] # b*
  - [     0.000000000000000,     0.000000000000000,     0.313705037597062 ] # c*

unit_cell:
  lattice:
  - [     1.954294045411208,     0.000000000000000,     0.000000000000000 ] # a
  - [    -0.977147022705604,     1.692468289790766,     0.000000000000000 ] # b
  - [     0.000000000000000,     0.000000000000000,     3.187707815149744 ] # c
  points:
  - symbol: He # 1
    coordinates: [  0.333333333333333,  0.666666666666666,  0.250000000000000 ]
    mass: 4.002602
    reduced_to: 1
  - symbol: He # 2
    coordinates: [  0.666666666666667,  0.333333333333333,  0.750000000000000 ]
    mass: 4.002602
    reduced_to: 2

supercell:
  lattice:
  - [     1.954294045411208,     3.384936579581532,     0.000000000000000 ] # a
  - [    -2.931441068116813,     1.692468289790766,     0.000000000000000 ] # b
  - [     0.000000000000000,     0.000000000000000,     9.563123445449232 ] # c
  points:
  - symbol: He # 1
    coordinates: [  0.250000000000000,  0.166666666666667,  0.083333333333333 ]
    mass: 4.002602
    reduced_to: 1
  - symbol: He # 2
    coordinates: [  0.500000000000000,  0.666666666666667,  0.083333333333333 ]
    mass: 4.002602
    reduced_to: 1
  - symbol: He # 3
    coordinates: [  0.750000000000000,  0.166666666666666,  0.083333333333333 ]
    mass: 4.002602
    reduced_to: 1
  - symbol: He # 4
    coordinates: [  0.000000000000000,  0.666666666666667,  0.083333333333333 ]
    mass: 4.002602
    reduced_to: 1
  - symbol: He # 5
    coordinates: [  0.250000000000000,  0.166666666666667,  0.416666666666667 ]
    mass: 4.002602
    reduced_to: 1
  - symbol: He # 6
    coordinates: [  0.500000000000000,  0.666666666666667,  0.416666666666667 ]
    mass: 4.002602
    reduced_to: 1
  - symbol: He # 7
    coordinates: [  0.750000000000000,  0.166666666666666,  0.416666666666667 ]
    mass: 4.002602
    reduced_to: 1
  - symbol: He # 8
    coordinates: [  0.000000000000000,  0.666666666666667,  0.416666666666667 ]
    mass: 4.002602
    reduced_to: 1
  - symbol: He # 9
    coordinates: [  0.250000000000000,  0.166666666666667,  0.750000000000000 ]
    mass: 4.002602
    reduced_to: 1
  - symbol: He # 10
    coordinates: [  0.500000000000000,  0.666666666666667,  0.750000000000000 ]
    mass: 4.002602
    reduced_to: 1
  - symbol: He # 11
    coordinates: [  0.750000000000000,  0.166666666666666,  0.750000000000000 ]
    mass: 4.002602
    reduced_to: 1
  - symbol: He # 12
    coordinates: [  0.000000000000000,  0.666666666666667,  0.750000000000000 ]
    mass: 4.002602
    reduced_to: 1
  - symbol: He # 13
    coordinates: [  0.250000000000000,  0.833333333333333,  0.250000000000000 ]
    mass: 4.002602
    reduced_to: 13
  - symbol: He # 14
    coordinates: [  0.500000000000000,  0.333333333333333,  0.250000000000000 ]
    mass: 4.002602
    reduced_to: 13
  - symbol: He # 15
    coordinates: [  0.750000000000000,  0.833333333333333,  0.250000000000000 ]
    mass: 4.002602
    reduced_to: 13
  - symbol: He # 16
    coordinates: [  0.000000000000000,  0.333333333333333,  0.250000000000000 ]
    mass: 4.002602
    reduced_to: 13
  - symbol: He # 17
    coordinates: [  0.250000000000000,  0.833333333333333,  0.583333333333333 ]
    mass: 4.002602
    reduced_to: 13
  - symbol: He # 18
    coordinates: [  0.500000000000000,  0.333333333333333,  0.583333333333333 ]
    mass: 4.002602
    reduced_to: 13
  - symbol: He # 19
    coordinates: [  0.750000000000000,  0.833333333333333,  0.583333333333333 ]
    mass: 4.002602
    reduced_to: 13
  - symbol: He # 20
    coordinates: [  0.000000000000000,  0.333333333333333,  0.583333333333333 ]
    mass: 4.002602
    reduced_to: 13
  - symbol: He # 21
    coordinates: [  0.250000000000000,  0.833333333333333,  0.916666666666667 ]
    mass: 4.002602
    reduced_to: 13
  - symbol: He # 22
    coordinates: [  0.500000000000000,  0.333333333333333,  0.916666666666667 ]
    mass: 4.002602
    reduced_to: 13
  - symbol: He # 23
    coordinates: [  0.750000000000000,  0.833333333333333,  0.916666666666667 ]
    mass: 4.002602
    reduced_to: 13
  - symbol: He # 24
    coordinates: [  0.000000000000000,  0.333333333333333,  0.916666666666667 ]
    mass: 4.002602
    reduced_to: 13

force_constants:
  format: "compact"
  shape: [ 2, 24 ]
  elements:
  - # (1, 1)
    - [     3.499049254904410,     0.007951457499396,    -0.000000000000004 ]
    - [     0.007951457499395,     3.508230807159864,     0.000000000000028 ]
    - [     0.000000000000000,    -0.000000000000000,     3.491506342741291 ]
  - # (1, 2)
    - [    -1.183601345220560,     0.515139767859698,    -0.000000000000000 ]
    - [     0.367856579020778,    -0.673793885619266,     0.000000000000001 ]
    - [    -0.000000000000000,     0.000000000000000,     0.139164673457342 ]
  - # (1, 3)
    - [    -0.401818711013966,    -0.894212755018434,    -0.000000000000000 ]
    - [    -0.894212755018434,    -1.434366660659346,     0.000000000000001 ]
    - [     0.000000000000000,     0.000000000000000,     0.139413634496145 ]
  - # (1, 4)
    - [    -1.183594384443264,     0.367860597827424,    -0.000000000000000 ]
    - [     0.515143786666345,    -0.673800846396563,     0.000000000000001 ]
    - [    -0.000000000000000,     0.000000000000000,     0.139164673457342 ]
  - # (1, 5)
    - [     0.001519319842651,     0.000008156790891,    -0.000213474258742 ]
    - [     0.000008156790891,     0.001528738493485,     0.000123249420750 ]
    - [     0.000201883584933,    -0.000116557542106,    -0.022235688030725 ]
  - # (1, 6)
    - [    -0.000752543800810,     0.000084846403628,    -0.000335509217730 ]
    - [     0.000722334926280,    -0.000286642733689,     0.000086916936783 ]
    - [     0.000242542888671,    -0.000243440646957,    -0.000630360255782 ]
  - # (1, 7)
    - [    -0.000724689009109,    -0.000161413158644,     0.000789228937043 ]
    - [    -0.000161413158644,    -0.000911072870296,    -0.000455661539254 ]
    - [    -0.000788576785740,     0.000455285019523,    -0.001089346645813 ]
  - # (1, 8)
    - [    -0.000752637769050,     0.000722280673692,    -0.000243026884138 ]
    - [     0.000084792151040,    -0.000286548765449,     0.000247101037366 ]
    - [     0.000332097228914,    -0.000088327979618,    -0.000630360255782 ]
  - # (1, 9)
    - [     0.001519319842651,     0.000008156790891,     0.000213474258742 ]
    - [     0.000008156790891,     0.001528738493485,    -0.000123249420750 ]
    - [    -0.000201883584933,     0.000116557542106,    -0.022235688030725 ]
  - # (1, 10)
    - [    -0.000752543800810,     0.000084846403628,     0.000335509217730 ]
    - [     0.000722334926280,    -0.000286642733689,    -0.000086916936783 ]
    - [    -0.000242542888671,     0.000243440646957,    -0.000630360255782 ]
  - # (1, 11)
    - [    -0.000724689009109,    -0.000161413158644,    -0.000789228937043 ]
    - [    -0.000161413158644,    -0.000911072870296,     0.000455661539254 ]
    - [     0.000788576785740,    -0.000455285019523,    -0.001089346645813 ]
  - # (1, 12)
    - [    -0.000752637769050,     0.000722280673692,     0.000243026884138 ]
    - [     0.000084792151040,    -0.000286548765449,    -0.000247101037366 ]
    - [    -0.000332097228914,     0.000088327979618,    -0.000630360255782 ]
  - # (1, 13)
    - [    -0.207404016282335,     0.166768870380037,    -0.418719675862070 ]
    - [     0.166768870380034,    -0.014835911869605,     0.241747917573955 ]
    - [    -0.418518121808887,     0.241631550287098,    -0.639670716548451 ]
  - # (1, 14)
    - [     0.065618529433065,    -0.002638693591659,    -0.001735086788680 ]
    - [    -0.002645001161766,    -0.307729948390877,    -0.480269570791240 ]
    - [    -0.001735319753581,    -0.480040169868552,    -0.643926216679179 ]
  - # (1, 15)
    - [    -0.009828365730267,    -0.000490093173863,     0.005406392057718 ]
    - [    -0.000490093173863,    -0.010394276581983,    -0.003121381909868 ]
    - [     0.005413018837549,    -0.003125207882987,    -0.003469255023595 ]
  - # (1, 16)
    - [    -0.212104921993735,    -0.162988710603301,     0.415058105575518 ]
    - [    -0.162982403033190,    -0.030006496964072,     0.241637414632380 ]
    - [     0.414859322066373,     0.241522915924567,    -0.643926216679179 ]
  - # (1, 17)
    - [    -0.000340999146377,     0.000175253030424,    -0.000000000000000 ]
    - [     0.000175253030424,    -0.000138634377794,     0.000000000000000 ]
    - [    -0.000000000000000,     0.000000000000000,     0.000192120618985 ]
  - # (1, 18)
    - [    -0.000333633055938,     0.000167914350331,    -0.000000000000000 ]
    - [     0.000167035501320,    -0.000095082749378,     0.000000000000000 ]
    - [    -0.000000000000000,     0.000000000000000,     0.000556467710019 ]
  - # (1, 19)
    - [    -0.000202676832646,     0.000120509819436,    -0.000000000000000 ]
    - [     0.000120509819436,    -0.000063524079263,     0.000000000000000 ]
    - [    -0.000000000000000,     0.000000000000000,     0.000601371641675 ]
  - # (1, 20)
    - [    -0.000299757866280,     0.000186593351188,    -0.000000000000000 ]
    - [     0.000187472200199,    -0.000128957939035,     0.000000000000000 ]
    - [    -0.000000000000000,     0.000000000000000,     0.000556467710019 ]
  - # (1, 21)
    - [    -0.207404016282336,     0.166768870380037,     0.418719675862072 ]
    - [     0.166768870380040,    -0.014835911869609,    -0.241747917573965 ]
    - [     0.418518121808887,    -0.241631550287098,    -0.639670716548451 ]
  - # (1, 22)
    - [     0.065618529433065,    -0.002638693591660,     0.001735086788681 ]
    - [    -0.002645001161766,    -0.307729948390870,     0.480269570791229 ]
    - [     0.001735319753581,     0.480040169868552,    -0.643926216679180 ]
  - # (1, 23)
    - [    -0.009828365730267,    -0.000490093173863,    -0.005406392057718 ]
    - [    -0.000490093173863,    -0.010394276581983,     0.003121381909868 ]
    - [    -0.005413018837549,     0.003125207882987,    -0.003469255023595 ]
  - # (1, 24)
    - [    -0.212104921993734,    -0.162988710603300,    -0.415058105575517 ]
    - [    -0.162982403033197,    -0.030006496964076,    -0.241637414632391 ]
    - [    -0.414859322066373,    -0.241522915924567,    -0.643926216679179 ]
  - # (2, 1)
    - [    -0.207404016282339,     0.166768870380039,    -0.418719675862076 ]
    - [     0.166768870380036,    -0.014835911869606,     0.241747917573958 ]
    - [    -0.418518121808887,     0.241631550287097,    -0.639670716548451 ]
  - # (2, 2)
    - [    -0.212104921993731,    -0.162988710603299,     0.415058105575513 ]
    - [    -0.162982403033192,    -0.030006496964074,     0.241637414632384 ]
    - [     0.414859322066373,     0.241522915924567,    -0.643926216679180 ]
  - # (2, 3)
    - [    -0.009828365730267,    -0.000490093173863,     0.005406392057718 ]
    - [    -0.000490093173863,    -0.010394276581983,    -0.003121381909868 ]
    - [     0.005413018837549,    -0.003125207882987,    -0.003469255023595 ]
  - # (2, 4)
    - [     0.065618529433065,    -0.002638693591663,    -0.001735086788686 ]
    - [    -0.002645001161766,    -0.307729948390874,    -0.480269570791236 ]
    - [    -0.001735319753581,    -0.480040169868552,    -0.643926216679179 ]
  - # (2, 5)
    - [    -0.207404016282332,     0.166768870380035,     0.418719675862066 ]
    - [     0.166768870380038,    -0.014835911869608,    -0.241747917573961 ]
    - [     0.418518121808887,    -0.241631550287097,    -0.639670716548451 ]
  - # (2, 6)
    - [    -0.212104921993737,    -0.162988710603302,    -0.415058105575522 ]
    - [    -0.162982403033195,    -0.030006496964075,    -0.241637414632387 ]
    - [    -0.414859322066373,    -0.241522915924566,    -0.643926216679179 ]
  - # (2, 7)
    - [    -0.009828365730267,    -0.000490093173863,    -0.005406392057718 ]
    - [    -0.000490093173863,    -0.010394276581983,     0.003121381909868 ]
    - [    -0.005413018837549,     0.003125207882987,    -0.003469255023595 ]
  - # (2, 8)
    - [     0.065618529433065,    -0.002638693591656,     0.001735086788676 ]
    - [    -0.002645001161766,    -0.307729948390872,     0.480269570791232 ]
    - [     0.001735319753581,     0.480040169868552,    -0.643926216679179 ]
  - # (2, 9)
    - [    -0.000340999146377,     0.000175253030424,     0.000000000000000 ]
    - [     0.000175253030424,    -0.000138634377794,     0.000000000000000 ]
    - [     0.000000000000000,    -0.000000000000000,     0.000192120618985 ]
  - # (2, 10)
    - [    -0.000299757866280,     0.000186593351188,     0.000000000000000 ]
    - [     0.000187472200199,    -0.000128957939035,     0.000000000000000 ]
    - [     0.000000000000000,    -0.000000000000000,     0.000556467710019 ]
  - # (2, 11)
    - [    -0.000202676832646,     0.000120509819436,     0.000000000000000 ]
    - [     0.000120509819436,    -0.000063524079263,     0.000000000000000 ]
    - [     0.000000000000000,    -0.000000000000000,     0.000601371641675 ]
  - # (2, 12)
    - [    -0.000333633055938,     0.000167914350331,     0.000000000000000 ]
    - [     0.000167035501320,    -0.000095082749378,     0.000000000000000 ]
    - [     0.000000000000000,    -0.000000000000000,     0.000556467710019 ]
  - # (2, 13)
    - [     3.499049254904412,     0.007951457499396,     0.000000000000026 ]
    - [     0.007951457499397,     3.508230807159861,     0.000000000000010 ]
    - [    -0.000000000000000,     0.000000000000000,     3.491506342741291 ]
  - # (2, 14)
    - [    -1.183594384443264,     0.367860597827424,     0.000000000000001 ]
    - [     0.515143786666344,    -0.673800846396562,     0.000000000000000 ]
    - [     0.000000000000000,    -0.000000000000000,     0.139164673457342 ]
  - # (2, 15)
    - [    -0.401818711013966,    -0.894212755018434,     0.000000000000001 ]
    - [    -0.894212755018434,    -1.434366660659345,     0.000000000000000 ]
    - [     0.000000000000000,     0.000000000000000,     0.139413634496145 ]
  - # (2, 16)
    - [    -1.183601345220561,     0.515139767859699,     0.000000000000001 ]
    - [     0.367856579020778,    -0.673793885619265,     0.000000000000000 ]
    - [     0.000000000000000,    -0.000000000000000,     0.139164673457342 ]
  - # (2, 17)
    - [     0.001519319842651,     0.000008156790891,     0.000213474258742 ]
    - [     0.000008156790891,     0.001528738493485,    -0.000123249420750 ]
    - [    -0.000201883584933,     0.000116557542106,    -0.022235688030725 ]
  - # (2, 18)
    - [    -0.000752637769050,     0.000722280673692,     0.000243026884138 ]
    - [     0.000084792151040,    -0.000286548765449,    -0.000247101037366 ]
    - [    -0.000332097228914,     0.000088327979618,    -0.000630360255782 ]
  - # (2, 19)
    - [    -0.000724689009109,    -0.000161413158644,    -0.000789228937043 ]
    - [    -0.000161413158644,    -0.000911072870296,     0.000455661539254 ]
    - [     0.000788576785740,    -0.000455285019523,    -0.001089346645813 ]
  - # (2, 20)
    - [    -0.000752543800810,     0.000084846403628,     0.000335509217730 ]
    - [     0.000722334926280,    -0.000286642733689,    -0.000086916936783 ]
    - [    -0.000242542888671,     0.000243440646957,    -0.000630360255782 ]
  - # (2, 21)
    - [     0.001519319842651,     0.000008156790891,    -0.000213474258742 ]
    - [     0.000008156790891,     0.001528738493485,     0.000123249420750 ]
    - [     0.000201883584933,    -0.000116557542106,    -0.022235688030725 ]
  - # (2, 22)
    - [    -0.000752637769050,     0.000722280673692,    -0.000243026884138 ]
    - [     0.000084792151040,    -0.000286548765449,     0.000247101037366 ]
    - [     0.000332097228914,    -0.000088327979618,    -0.000630360255782 ]
  - # (2, 23)
    - [    -0.000724689009109,    -0.000161413158644,     0.000789228937043 ]
    - [    -0.000161413158644,    -0.000911072870296,    -0.000455661539254 ]
    - [    -0.000788576785740,     0.000455285019523,    -0.001089346645813 ]
  - # (2, 24)
    - [    -0.000752543800810,     0.000084846403628,    -0.000335509217730 ]
    - [     0.000722334926280,    -0.000286642733689,     0.000086916936783 ]
    - [     0.000242542888671,    -0.000243440646957,    -0.000630360255782 ]