phonopy:
  version: "2.34.0"
  frequency_unit_conversion_factor: 15.633302
  symmetry_tolerance: 1.00000e-05
  configuration:
    force_sets: "READ"
    force_constants: "WRITE"
    fc_format: "HDF5"
    fc_symmetry: ".FALSE."
    include_fc: ".TRUE."
    primitive_axes: "1 0 0 0 1 0 0 0 1"
    dim: "1 0 0 0 1 0 0 0 1"

physical_unit:
  atomic_mass: "AMU"
  length: "angstrom"
  force: "eV/angstrom"
  force_constants: "eV/angstrom^2"

space_group:
  type: "Pm-3m"
  number: 221
  Hall_symbol: "-P 4 2 3"

primitive_matrix:
- [  1.000000000000000,  0.000000000000000,  0.000000000000000 ]
- [  0.000000000000000,  1.000000000000000,  0.000000000000000 ]
- [  0.000000000000000,  0.000000000000000,  1.000000000000000 ]

supercell_matrix:
- [   1,   0,   0 ]
- [   0,   1,   0 ]
- [   0,   0,   1 ]

primitive_cell:
  lattice:
  - [     4.143698340000000,     0.000000000000000,     0.000000000000000 ] # a
  - [     0.000000000000001,     4.143698340000000,     0.000000000000000 ] # b
  - [     0.000000000000000,     0.000000000000000,     4.143698340000000 ] # c
  points:
  - symbol: Cs # 1
    coordinates: [  0.000000000000000,  0.000000000000000,  0.000000000000000 ]
    mass: 132.905452
  - symbol: Cl # 2
    coordinates: [  0.500000000000000,  0.500000000000000,  0.500000000000000 ]
    mass: 35.453000
  reciprocal_lattice: # without 2pi
  - [     0.241330308808146,    -0.000000000000000,     0.000000000000000 ] # a*
  - [     0.000000000000000,     0.241330308808146,     0.000000000000000 ] # b*
  - [    -0.000000000000000,    -0.000000000000000,     0.241330308808146 ] # c*

unit_cell:
  lattice:
  - [     4.143698340000000,     0.000000000000000,     0.000000000000000 ] # a
  - [     0.000000000000001,     4.143698340000000,     0.000000000000000 ] # b
  - [     0.000000000000000,     0.000000000000000,     4.143698340000000 ] # c
  points:
  - symbol: Cs # 1
    coordinates: [  0.000000000000000,  0.000000000000000,  0.000000000000000 ]
    mass: 132.905452
    reduced_to: 1
  - symbol: Cl # 2
    coordinates: [  0.500000000000000,  0.500000000000000,  0.500000000000000 ]
    mass: 35.453000
    reduced_to: 2

supercell:
  lattice:
  - [     4.143698340000000,     0.000000000000000,     0.000000000000000 ] # a
  - [     0.000000000000001,     4.143698340000000,     0.000000000000000 ] # b
  - [     0.000000000000000,     0.000000000000000,     4.143698340000000 ] # c
  points:
  - symbol: Cs # 1
    coordinates: [  0.000000000000000,  0.000000000000000,  0.000000000000000 ]
    mass: 132.905452
    reduced_to: 1
  - symbol: Cl # 2
    coordinates: [  0.500000000000000,  0.500000000000000,  0.500000000000000 ]
    mass: 35.453000
    reduced_to: 2

force_constants:
  format: "full"
  shape: [ 2, 2 ]
  elements:
  - # (1, 1)
    - [     0.771146000000000,     0.000000000000000,     0.000000000000000 ]
    - [    -0.000000000000000,     0.771146000000000,    -0.000000000000000 ]
    - [    -0.000000000000000,    -0.000000000000000,     0.771146000000000 ]
  - # (1, 2)
    - [    -0.771146000000000,    -0.000000000000000,    -0.000000000000000 ]
    - [     0.000000000000000,    -0.771146000000000,     0.000000000000000 ]
    - [     0.000000000000000,     0.000000000000000,    -0.771146000000000 ]
  - # (2, 1)
    - [    -0.786339000000000,    -0.000000000000000,    -0.000000000000000 ]
    - [     0.000000000000000,    -0.786339000000000,     0.000000000000000 ]
    - [     0.000000000000000,     0.000000000000000,    -0.786339000000000 ]
  - # (2, 2)
    - [     0.786339000000000,     0.000000000000000,     0.000000000000000 ]
    - [    -0.000000000000000,     0.786339000000000,    -0.000000000000000 ]
    - [    -0.000000000000000,    -0.000000000000000,     0.786339000000000 ]