<?xml version="1.0" encoding="ISO-8859-1"?>
<modeling>
 <generator>
  <i name="program" type="string">vasp </i>
  <i name="version" type="string">6.4.3  </i>
  <i name="subversion" type="string">19Mar24 (build Jun 20 2024 15:56:09) complex                          parallel </i>
  <i name="platform" type="string">LinuxNV_CrayMPICH </i>
  <i name="date" type="string">2025 01 13 </i>
  <i name="time" type="string">18:03:10 </i>
 </generator>
 <incar>
  <i type="string" name="PREC">Accurate</i>
  <i type="int" name="IBRION">    -1</i>
  <i name="EDIFF">      0.00000001</i>
  <i type="int" name="NSW">     0</i>
  <i name="ENCUT">    500.00000000</i>
  <i type="logical" name="LREAL"> F  </i>
  <i type="int" name="ISMEAR">     0</i>
  <i name="SIGMA">      0.01000000</i>
  <i type="logical" name="LWAVE"> F  </i>
  <i type="logical" name="LCHARG"> F  </i>
 </incar>
 <primitive_cell>
  <structure name="primitive_cell" >
   <crystal>
    <varray name="basis" >
     <v>      -0.00000000       0.00000000       5.44370237 </v>
     <v>      -5.44370237       0.00000000       0.00000000 </v>
     <v>      -2.72185119      -5.44370237       2.72185119 </v>
    </varray>
    <i name="volume">    161.31810740 </i>
    <varray name="rec_basis" >
     <v>       0.00000000       0.09184925       0.18369851 </v>
     <v>      -0.18369851       0.09184925      -0.00000000 </v>
     <v>       0.00000000      -0.18369851       0.00000000 </v>
    </varray>
   </crystal>
   <varray name="positions" >
    <v>       1.00000000       0.00000000       0.00149989 </v>
    <v>       0.75000000       0.25000000       0.50000000 </v>
    <v>       0.50000000       0.50000000       0.00000000 </v>
    <v>       0.25000000       0.75000000       0.50000000 </v>
    <v>       0.37500000       0.87500000       0.75000000 </v>
    <v>       0.12500000       0.12500000       0.25000000 </v>
    <v>       0.87500000       0.37500000       0.75000000 </v>
    <v>       0.62500000       0.62500000       0.25000000 </v>
   </varray>
  </structure>
  <varray name="primitive_index" >
   <v type="int" >        1 </v>
   <v type="int" >        2 </v>
   <v type="int" >        3 </v>
   <v type="int" >        4 </v>
   <v type="int" >        5 </v>
   <v type="int" >        6 </v>
   <v type="int" >        7 </v>
   <v type="int" >        8 </v>
  </varray>
 </primitive_cell>
 <kpoints>
  <generation param="Gamma">
   <v type="int" name="divisions">       9        9        8 </v>
   <v name="usershift">      0.00000000       0.00000000       0.00000000 </v>
   <v name="genvec1">      0.11111111       0.00000000      -0.00000000 </v>
   <v name="genvec2">      0.00000000       0.11111111       0.00000000 </v>
   <v name="genvec3">      0.00000000       0.00000000       0.12500000 </v>
   <v name="shift">      0.00000000       0.00000000       0.00000000 </v>
  </generation>
  <varray name="kpointlist" >
   <v>       0.00000000       0.00000000       0.00000000 </v>
   <v>       0.11111111       0.00000000       0.00000000 </v>
   <v>       0.22222222       0.00000000       0.00000000 </v>
   <v>       0.33333333       0.00000000       0.00000000 </v>
   <v>       0.44444444       0.00000000       0.00000000 </v>
   <v>       0.11111111       0.11111111       0.00000000 </v>
   <v>       0.22222222       0.11111111       0.00000000 </v>
   <v>       0.33333333       0.11111111       0.00000000 </v>
   <v>       0.44444444       0.11111111       0.00000000 </v>
   <v>      -0.44444444       0.11111111       0.00000000 </v>
   <v>      -0.33333333       0.11111111       0.00000000 </v>
   <v>      -0.22222222       0.11111111       0.00000000 </v>
   <v>      -0.11111111       0.11111111       0.00000000 </v>
   <v>       0.22222222       0.22222222       0.00000000 </v>
   <v>       0.33333333       0.22222222       0.00000000 </v>
   <v>       0.44444444       0.22222222       0.00000000 </v>
   <v>      -0.44444444       0.22222222       0.00000000 </v>
   <v>      -0.33333333       0.22222222       0.00000000 </v>
   <v>      -0.22222222       0.22222222       0.00000000 </v>
   <v>       0.33333333       0.33333333       0.00000000 </v>
   <v>       0.44444444       0.33333333       0.00000000 </v>
   <v>      -0.44444444       0.33333333       0.00000000 </v>
   <v>      -0.33333333       0.33333333       0.00000000 </v>
   <v>       0.44444444       0.44444444       0.00000000 </v>
   <v>      -0.44444444       0.44444444       0.00000000 </v>
   <v>       0.00000000       0.00000000       0.12500000 </v>
   <v>       0.11111111       0.00000000       0.12500000 </v>
   <v>       0.22222222       0.00000000       0.12500000 </v>
   <v>       0.33333333       0.00000000       0.12500000 </v>
   <v>       0.44444444       0.00000000       0.12500000 </v>
   <v>      -0.44444444       0.00000000       0.12500000 </v>
   <v>      -0.33333333       0.00000000       0.12500000 </v>
   <v>      -0.22222222       0.00000000       0.12500000 </v>
   <v>      -0.11111111       0.00000000       0.12500000 </v>
   <v>       0.11111111       0.11111111       0.12500000 </v>
   <v>       0.22222222       0.11111111       0.12500000 </v>
   <v>       0.33333333       0.11111111       0.12500000 </v>
   <v>       0.44444444       0.11111111       0.12500000 </v>
   <v>      -0.44444444       0.11111111       0.12500000 </v>
   <v>      -0.33333333       0.11111111       0.12500000 </v>
   <v>      -0.22222222       0.11111111       0.12500000 </v>
   <v>      -0.11111111       0.11111111       0.12500000 </v>
   <v>       0.22222222       0.22222222       0.12500000 </v>
   <v>       0.33333333       0.22222222       0.12500000 </v>
   <v>       0.44444444       0.22222222       0.12500000 </v>
   <v>      -0.44444444       0.22222222       0.12500000 </v>
   <v>      -0.33333333       0.22222222       0.12500000 </v>
   <v>      -0.22222222       0.22222222       0.12500000 </v>
   <v>      -0.11111111       0.22222222       0.12500000 </v>
   <v>       0.33333333       0.33333333       0.12500000 </v>
   <v>       0.44444444       0.33333333       0.12500000 </v>
   <v>      -0.44444444       0.33333333       0.12500000 </v>
   <v>      -0.33333333       0.33333333       0.12500000 </v>
   <v>      -0.22222222       0.33333333       0.12500000 </v>
   <v>      -0.11111111       0.33333333       0.12500000 </v>
   <v>       0.44444444       0.44444444       0.12500000 </v>
   <v>      -0.44444444       0.44444444       0.12500000 </v>
   <v>      -0.33333333       0.44444444       0.12500000 </v>
   <v>      -0.22222222       0.44444444       0.12500000 </v>
   <v>      -0.11111111       0.44444444       0.12500000 </v>
   <v>      -0.44444444      -0.44444444       0.12500000 </v>
   <v>      -0.33333333      -0.44444444       0.12500000 </v>
   <v>      -0.22222222      -0.44444444       0.12500000 </v>
   <v>      -0.11111111      -0.44444444       0.12500000 </v>
   <v>      -0.33333333      -0.33333333       0.12500000 </v>
   <v>      -0.22222222      -0.33333333       0.12500000 </v>
   <v>      -0.11111111      -0.33333333       0.12500000 </v>
   <v>      -0.22222222      -0.22222222       0.12500000 </v>
   <v>      -0.11111111      -0.22222222       0.12500000 </v>
   <v>      -0.11111111      -0.11111111       0.12500000 </v>
   <v>       0.00000000       0.00000000       0.25000000 </v>
   <v>       0.11111111       0.00000000       0.25000000 </v>
   <v>       0.22222222       0.00000000       0.25000000 </v>
   <v>       0.33333333       0.00000000       0.25000000 </v>
   <v>       0.44444444       0.00000000       0.25000000 </v>
   <v>      -0.44444444       0.00000000       0.25000000 </v>
   <v>      -0.33333333       0.00000000       0.25000000 </v>
   <v>      -0.22222222       0.00000000       0.25000000 </v>
   <v>      -0.11111111       0.00000000       0.25000000 </v>
   <v>       0.11111111       0.11111111       0.25000000 </v>
   <v>       0.22222222       0.11111111       0.25000000 </v>
   <v>       0.33333333       0.11111111       0.25000000 </v>
   <v>       0.44444444       0.11111111       0.25000000 </v>
   <v>      -0.44444444       0.11111111       0.25000000 </v>
   <v>      -0.33333333       0.11111111       0.25000000 </v>
   <v>      -0.22222222       0.11111111       0.25000000 </v>
   <v>      -0.11111111       0.11111111       0.25000000 </v>
   <v>       0.22222222       0.22222222       0.25000000 </v>
   <v>       0.33333333       0.22222222       0.25000000 </v>
   <v>       0.44444444       0.22222222       0.25000000 </v>
   <v>      -0.44444444       0.22222222       0.25000000 </v>
   <v>      -0.33333333       0.22222222       0.25000000 </v>
   <v>      -0.22222222       0.22222222       0.25000000 </v>
   <v>      -0.11111111       0.22222222       0.25000000 </v>
   <v>       0.33333333       0.33333333       0.25000000 </v>
   <v>       0.44444444       0.33333333       0.25000000 </v>
   <v>      -0.44444444       0.33333333       0.25000000 </v>
   <v>      -0.33333333       0.33333333       0.25000000 </v>
   <v>      -0.22222222       0.33333333       0.25000000 </v>
   <v>      -0.11111111       0.33333333       0.25000000 </v>
   <v>       0.44444444       0.44444444       0.25000000 </v>
   <v>      -0.44444444       0.44444444       0.25000000 </v>
   <v>      -0.33333333       0.44444444       0.25000000 </v>
   <v>      -0.22222222       0.44444444       0.25000000 </v>
   <v>      -0.11111111       0.44444444       0.25000000 </v>
   <v>      -0.44444444      -0.44444444       0.25000000 </v>
   <v>      -0.33333333      -0.44444444       0.25000000 </v>
   <v>      -0.22222222      -0.44444444       0.25000000 </v>
   <v>      -0.11111111      -0.44444444       0.25000000 </v>
   <v>      -0.33333333      -0.33333333       0.25000000 </v>
   <v>      -0.22222222      -0.33333333       0.25000000 </v>
   <v>      -0.11111111      -0.33333333       0.25000000 </v>
   <v>      -0.22222222      -0.22222222       0.25000000 </v>
   <v>      -0.11111111      -0.22222222       0.25000000 </v>
   <v>      -0.11111111      -0.11111111       0.25000000 </v>
   <v>       0.00000000       0.00000000       0.37500000 </v>
   <v>       0.11111111       0.00000000       0.37500000 </v>
   <v>       0.22222222       0.00000000       0.37500000 </v>
   <v>       0.33333333       0.00000000       0.37500000 </v>
   <v>       0.44444444       0.00000000       0.37500000 </v>
   <v>      -0.44444444       0.00000000       0.37500000 </v>
   <v>      -0.33333333       0.00000000       0.37500000 </v>
   <v>      -0.22222222       0.00000000       0.37500000 </v>
   <v>      -0.11111111       0.00000000       0.37500000 </v>
   <v>       0.11111111       0.11111111       0.37500000 </v>
   <v>       0.22222222       0.11111111       0.37500000 </v>
   <v>       0.33333333       0.11111111       0.37500000 </v>
   <v>       0.44444444       0.11111111       0.37500000 </v>
   <v>      -0.44444444       0.11111111       0.37500000 </v>
   <v>      -0.33333333       0.11111111       0.37500000 </v>
   <v>      -0.22222222       0.11111111       0.37500000 </v>
   <v>      -0.11111111       0.11111111       0.37500000 </v>
   <v>       0.22222222       0.22222222       0.37500000 </v>
   <v>       0.33333333       0.22222222       0.37500000 </v>
   <v>       0.44444444       0.22222222       0.37500000 </v>
   <v>      -0.44444444       0.22222222       0.37500000 </v>
   <v>      -0.33333333       0.22222222       0.37500000 </v>
   <v>      -0.22222222       0.22222222       0.37500000 </v>
   <v>      -0.11111111       0.22222222       0.37500000 </v>
   <v>       0.33333333       0.33333333       0.37500000 </v>
   <v>       0.44444444       0.33333333       0.37500000 </v>
   <v>      -0.44444444       0.33333333       0.37500000 </v>
   <v>      -0.33333333       0.33333333       0.37500000 </v>
   <v>      -0.22222222       0.33333333       0.37500000 </v>
   <v>      -0.11111111       0.33333333       0.37500000 </v>
   <v>       0.44444444       0.44444444       0.37500000 </v>
   <v>      -0.44444444       0.44444444       0.37500000 </v>
   <v>      -0.33333333       0.44444444       0.37500000 </v>
   <v>      -0.22222222       0.44444444       0.37500000 </v>
   <v>      -0.11111111       0.44444444       0.37500000 </v>
   <v>      -0.44444444      -0.44444444       0.37500000 </v>
   <v>      -0.33333333      -0.44444444       0.37500000 </v>
   <v>      -0.22222222      -0.44444444       0.37500000 </v>
   <v>      -0.11111111      -0.44444444       0.37500000 </v>
   <v>      -0.33333333      -0.33333333       0.37500000 </v>
   <v>      -0.22222222      -0.33333333       0.37500000 </v>
   <v>      -0.11111111      -0.33333333       0.37500000 </v>
   <v>      -0.22222222      -0.22222222       0.37500000 </v>
   <v>      -0.11111111      -0.22222222       0.37500000 </v>
   <v>      -0.11111111      -0.11111111       0.37500000 </v>
   <v>       0.00000000       0.00000000       0.50000000 </v>
   <v>       0.11111111       0.00000000       0.50000000 </v>
   <v>       0.22222222       0.00000000       0.50000000 </v>
   <v>       0.33333333       0.00000000       0.50000000 </v>
   <v>       0.44444444       0.00000000       0.50000000 </v>
   <v>       0.11111111       0.11111111       0.50000000 </v>
   <v>       0.22222222       0.11111111       0.50000000 </v>
   <v>       0.33333333       0.11111111       0.50000000 </v>
   <v>       0.44444444       0.11111111       0.50000000 </v>
   <v>      -0.44444444       0.11111111       0.50000000 </v>
   <v>      -0.33333333       0.11111111       0.50000000 </v>
   <v>      -0.22222222       0.11111111       0.50000000 </v>
   <v>      -0.11111111       0.11111111       0.50000000 </v>
   <v>       0.22222222       0.22222222       0.50000000 </v>
   <v>       0.33333333       0.22222222       0.50000000 </v>
   <v>       0.44444444       0.22222222       0.50000000 </v>
   <v>      -0.44444444       0.22222222       0.50000000 </v>
   <v>      -0.33333333       0.22222222       0.50000000 </v>
   <v>      -0.22222222       0.22222222       0.50000000 </v>
   <v>       0.33333333       0.33333333       0.50000000 </v>
   <v>       0.44444444       0.33333333       0.50000000 </v>
   <v>      -0.44444444       0.33333333       0.50000000 </v>
   <v>      -0.33333333       0.33333333       0.50000000 </v>
   <v>       0.44444444       0.44444444       0.50000000 </v>
   <v>      -0.44444444       0.44444444       0.50000000 </v>
  </varray>
  <varray name="weights" >
   <v>       0.00154321 </v>
   <v>       0.00617284 </v>
   <v>       0.00617284 </v>
   <v>       0.00617284 </v>
   <v>       0.00617284 </v>
   <v>       0.00308642 </v>
   <v>       0.00617284 </v>
   <v>       0.00617284 </v>
   <v>       0.00617284 </v>
   <v>       0.00617284 </v>
   <v>       0.00617284 </v>
   <v>       0.00617284 </v>
   <v>       0.00308642 </v>
   <v>       0.00308642 </v>
   <v>       0.00617284 </v>
   <v>       0.00617284 </v>
   <v>       0.00617284 </v>
   <v>       0.00617284 </v>
   <v>       0.00308642 </v>
   <v>       0.00308642 </v>
   <v>       0.00617284 </v>
   <v>       0.00617284 </v>
   <v>       0.00308642 </v>
   <v>       0.00308642 </v>
   <v>       0.00308642 </v>
   <v>       0.00308642 </v>
   <v>       0.00617284 </v>
   <v>       0.00617284 </v>
   <v>       0.00617284 </v>
   <v>       0.00617284 </v>
   <v>       0.00617284 </v>
   <v>       0.00617284 </v>
   <v>       0.00617284 </v>
   <v>       0.00617284 </v>
   <v>       0.00308642 </v>
   <v>       0.00617284 </v>
   <v>       0.00617284 </v>
   <v>       0.00617284 </v>
   <v>       0.00617284 </v>
   <v>       0.00617284 </v>
   <v>       0.00617284 </v>
   <v>       0.00617284 </v>
   <v>       0.00308642 </v>
   <v>       0.00617284 </v>
   <v>       0.00617284 </v>
   <v>       0.00617284 </v>
   <v>       0.00617284 </v>
   <v>       0.00617284 </v>
   <v>       0.00617284 </v>
   <v>       0.00308642 </v>
   <v>       0.00617284 </v>
   <v>       0.00617284 </v>
   <v>       0.00617284 </v>
   <v>       0.00617284 </v>
   <v>       0.00617284 </v>
   <v>       0.00308642 </v>
   <v>       0.00617284 </v>
   <v>       0.00617284 </v>
   <v>       0.00617284 </v>
   <v>       0.00617284 </v>
   <v>       0.00308642 </v>
   <v>       0.00617284 </v>
   <v>       0.00617284 </v>
   <v>       0.00617284 </v>
   <v>       0.00308642 </v>
   <v>       0.00617284 </v>
   <v>       0.00617284 </v>
   <v>       0.00308642 </v>
   <v>       0.00617284 </v>
   <v>       0.00308642 </v>
   <v>       0.00308642 </v>
   <v>       0.00617284 </v>
   <v>       0.00617284 </v>
   <v>       0.00617284 </v>
   <v>       0.00617284 </v>
   <v>       0.00617284 </v>
   <v>       0.00617284 </v>
   <v>       0.00617284 </v>
   <v>       0.00617284 </v>
   <v>       0.00308642 </v>
   <v>       0.00617284 </v>
   <v>       0.00617284 </v>
   <v>       0.00617284 </v>
   <v>       0.00617284 </v>
   <v>       0.00617284 </v>
   <v>       0.00617284 </v>
   <v>       0.00617284 </v>
   <v>       0.00308642 </v>
   <v>       0.00617284 </v>
   <v>       0.00617284 </v>
   <v>       0.00617284 </v>
   <v>       0.00617284 </v>
   <v>       0.00617284 </v>
   <v>       0.00617284 </v>
   <v>       0.00308642 </v>
   <v>       0.00617284 </v>
   <v>       0.00617284 </v>
   <v>       0.00617284 </v>
   <v>       0.00617284 </v>
   <v>       0.00617284 </v>
   <v>       0.00308642 </v>
   <v>       0.00617284 </v>
   <v>       0.00617284 </v>
   <v>       0.00617284 </v>
   <v>       0.00617284 </v>
   <v>       0.00308642 </v>
   <v>       0.00617284 </v>
   <v>       0.00617284 </v>
   <v>       0.00617284 </v>
   <v>       0.00308642 </v>
   <v>       0.00617284 </v>
   <v>       0.00617284 </v>
   <v>       0.00308642 </v>
   <v>       0.00617284 </v>
   <v>       0.00308642 </v>
   <v>       0.00308642 </v>
   <v>       0.00617284 </v>
   <v>       0.00617284 </v>
   <v>       0.00617284 </v>
   <v>       0.00617284 </v>
   <v>       0.00617284 </v>
   <v>       0.00617284 </v>
   <v>       0.00617284 </v>
   <v>       0.00617284 </v>
   <v>       0.00308642 </v>
   <v>       0.00617284 </v>
   <v>       0.00617284 </v>
   <v>       0.00617284 </v>
   <v>       0.00617284 </v>
   <v>       0.00617284 </v>
   <v>       0.00617284 </v>
   <v>       0.00617284 </v>
   <v>       0.00308642 </v>
   <v>       0.00617284 </v>
   <v>       0.00617284 </v>
   <v>       0.00617284 </v>
   <v>       0.00617284 </v>
   <v>       0.00617284 </v>
   <v>       0.00617284 </v>
   <v>       0.00308642 </v>
   <v>       0.00617284 </v>
   <v>       0.00617284 </v>
   <v>       0.00617284 </v>
   <v>       0.00617284 </v>
   <v>       0.00617284 </v>
   <v>       0.00308642 </v>
   <v>       0.00617284 </v>
   <v>       0.00617284 </v>
   <v>       0.00617284 </v>
   <v>       0.00617284 </v>
   <v>       0.00308642 </v>
   <v>       0.00617284 </v>
   <v>       0.00617284 </v>
   <v>       0.00617284 </v>
   <v>       0.00308642 </v>
   <v>       0.00617284 </v>
   <v>       0.00617284 </v>
   <v>       0.00308642 </v>
   <v>       0.00617284 </v>
   <v>       0.00308642 </v>
   <v>       0.00154321 </v>
   <v>       0.00617284 </v>
   <v>       0.00617284 </v>
   <v>       0.00617284 </v>
   <v>       0.00617284 </v>
   <v>       0.00308642 </v>
   <v>       0.00617284 </v>
   <v>       0.00617284 </v>
   <v>       0.00617284 </v>
   <v>       0.00617284 </v>
   <v>       0.00617284 </v>
   <v>       0.00617284 </v>
   <v>       0.00308642 </v>
   <v>       0.00308642 </v>
   <v>       0.00617284 </v>
   <v>       0.00617284 </v>
   <v>       0.00617284 </v>
   <v>       0.00617284 </v>
   <v>       0.00308642 </v>
   <v>       0.00308642 </v>
   <v>       0.00617284 </v>
   <v>       0.00617284 </v>
   <v>       0.00308642 </v>
   <v>       0.00308642 </v>
   <v>       0.00308642 </v>
  </varray>
 </kpoints>
 <parameters>
  <separator name="general" >
   <i type="string" name="SYSTEM">unknown system</i>
   <i type="logical" name="LCOMPAT"> F  </i>
  </separator>
  <separator name="electronic" >
   <i type="string" name="PREC">accura</i>
   <i name="ENMAX">    500.00000000</i>
   <i name="ENAUG">    322.06900000</i>
   <i name="EDIFF">      0.00000001</i>
   <i type="int" name="IALGO">    38</i>
   <i type="int" name="IWAVPR">    10</i>
   <i type="int" name="NBANDS">    24</i>
   <i type="int" name="NBANDSLOW">    -1</i>
   <i type="int" name="NBANDSHIGH">    -1</i>
   <i name="NELECT">     32.00000000</i>
   <i type="int" name="TURBO">     0</i>
   <i type="int" name="IRESTART">     0</i>
   <i type="int" name="NREBOOT">     0</i>
   <i type="int" name="NMIN">     0</i>
   <i name="EREF">      0.00000000</i>
   <separator name="electronic smearing" >
    <i type="int" name="ISMEAR">     0</i>
    <i name="SIGMA">      0.01000000</i>
    <i name="KSPACING">      0.50000000</i>
    <i type="logical" name="KGAMMA"> T  </i>
    <i type="logical" name="KBLOWUP"> F  </i>
   </separator>
   <separator name="electronic projectors" >
    <i type="logical" name="LREAL"> F  </i>
    <v name="ROPT">      0.00000000</v>
    <i type="int" name="LMAXPAW">  -100</i>
    <i type="int" name="LMAXMIX">     2</i>
    <i type="logical" name="NLSPLINE"> F  </i>
   </separator>
   <separator name="electronic startup" >
    <i type="int" name="ISTART">     0</i>
    <i type="int" name="ICHARG">     2</i>
    <i type="int" name="INIWAV">     1</i>
   </separator>
   <separator name="electronic spin" >
    <i type="int" name="ISPIN">     1</i>
    <i type="logical" name="LNONCOLLINEAR"> F  </i>
    <v name="MAGMOM">      1.00000000      1.00000000      1.00000000      1.00000000      1.00000000      1.00000000      1.00000000      1.00000000</v>
    <i name="NUPDOWN">     -1.00000000</i>
    <i type="logical" name="LSORBIT"> F  </i>
    <v name="SAXIS">      0.00000000      0.00000000      1.00000000</v>
    <i type="logical" name="LSPIRAL"> F  </i>
    <v name="QSPIRAL">      0.00000000      0.00000000      0.00000000</v>
    <i type="logical" name="LZEROZ"> F  </i>
   </separator>
   <separator name="electronic exchange-correlation" >
    <i type="logical" name="LASPH"> F  </i>
   </separator>
   <separator name="electronic convergence" >
    <i type="int" name="NELM">    60</i>
    <i type="int" name="NELMDL">    -5</i>
    <i type="int" name="NELMIN">     2</i>
    <i name="ENINI">    500.00000000</i>
    <separator name="electronic convergence detail" >
     <i type="logical" name="LDIAG"> T  </i>
     <i type="logical" name="LSUBROT"> F  </i>
     <i name="WEIMIN">      0.00000000</i>
     <i name="EBREAK">      0.00000000</i>
     <i name="DEPER">      0.30000000</i>
     <i type="int" name="NRMM">     4</i>
     <i name="TIME">      0.40000000</i>
    </separator>
   </separator>
   <separator name="electronic mixer" >
    <i name="AMIX">      0.40000000</i>
    <i name="BMIX">      1.00000000</i>
    <i name="AMIN">      0.10000000</i>
    <i name="AMIX_MAG">      1.60000000</i>
    <i name="BMIX_MAG">      1.00000000</i>
    <separator name="electronic mixer details" >
     <i type="int" name="IMIX">     4</i>
     <i type="logical" name="MIXFIRST"> F  </i>
     <i type="int" name="MAXMIX">   -45</i>
     <i name="WC">    100.00000000</i>
     <i type="int" name="INIMIX">     1</i>
     <i type="int" name="MIXPRE">     1</i>
     <i type="int" name="MREMOVE">     5</i>
    </separator>
   </separator>
   <separator name="electronic dipolcorrection" >
    <i type="logical" name="LDIPOL"> F  </i>
    <i type="logical" name="LMONO"> F  </i>
    <i type="int" name="IDIPOL">     0</i>
    <i name="EPSILON">      1.00000000</i>
    <v name="DIPOL">   -100.00000000   -100.00000000   -100.00000000</v>
    <i name="EFIELD">      0.00000000</i>
    <i type="logical" name="LVACPOTAV"> F  </i>
   </separator>
  </separator>
  <separator name="grids" >
   <i type="int" name="NGX">    40</i>
   <i type="int" name="NGY">    40</i>
   <i type="int" name="NGZ">    50</i>
   <i type="int" name="NGXF">    80</i>
   <i type="int" name="NGYF">    80</i>
   <i type="int" name="NGZF">   100</i>
   <i type="logical" name="ADDGRID"> F  </i>
  </separator>
  <separator name="ionic" >
   <i type="int" name="NSW">     0</i>
   <i type="int" name="IBRION">    -1</i>
   <i type="int" name="MDALGO">     0</i>
   <i type="int" name="ISIF">     2</i>
   <i name="PSTRESS">      0.00000000</i>
   <i name="EDIFFG">      0.00000010</i>
   <i type="int" name="NFREE">     0</i>
   <i name="POTIM">      0.50000000</i>
   <i name="SMASS">     -3.00000000</i>
   <i name="SCALEE">      1.00000000</i>
  </separator>
  <separator name="ionic md" >
   <i name="TEBEG">      0.00010000</i>
   <i name="TEEND">      0.00010000</i>
   <i type="int" name="NBLOCK">     1</i>
   <i type="int" name="KBLOCK">     1</i>
   <i type="int" name="NPACO">   256</i>
   <i name="APACO">     10.00000000</i>
  </separator>
  <separator name="symmetry" >
   <i type="int" name="ISYM">     2</i>
   <i name="SYMPREC">      0.00001000</i>
  </separator>
  <separator name="dos" >
   <i type="int" name="LORBIT">     0</i>
   <v name="RWIGS">     -1.00000000</v>
   <i type="int" name="NEDOS">   301</i>
   <i name="EMIN">     10.00000000</i>
   <i name="EMAX">    -10.00000000</i>
   <i name="EFERMI">      0.00000000</i>
  </separator>
  <separator name="writing" >
   <i type="int" name="NWRITE">     2</i>
   <i type="logical" name="LWAVE"> F  </i>
   <i type="logical" name="LDOWNSAMPLE"> F  </i>
   <i type="logical" name="LCHARG"> F  </i>
   <i type="logical" name="LPARD"> F  </i>
   <i type="logical" name="LVTOT"> F  </i>
   <i type="logical" name="LVHAR"> F  </i>
   <i type="logical" name="LELF"> F  </i>
   <i type="logical" name="LOPTICS"> F  </i>
   <v name="STM">      0.00000000      0.00000000      0.00000000      0.00000000      0.00000000      0.00000000      0.00000000</v>
  </separator>
  <separator name="performance" >
   <i type="int" name="NPAR">     8</i>
   <i type="int" name="NSIM">     4</i>
   <i type="int" name="NBLK">    -1</i>
   <i type="logical" name="LPLANE"> T  </i>
   <i type="logical" name="LSCALAPACK"> T  </i>
   <i type="logical" name="LSCAAWARE"> F  </i>
   <i type="logical" name="LSCALU"> F  </i>
   <i type="logical" name="LASYNC"> F  </i>
   <i type="logical" name="LORBITALREAL"> F  </i>
  </separator>
  <separator name="miscellaneous" >
   <i type="int" name="IDIOT">     3</i>
   <i type="int" name="PHON_NSTRUCT">    -1</i>
   <i type="logical" name="LMUSIC"> F  </i>
   <v name="POMASS">     28.08500000</v>
   <v name="DARWINR">      0.00000000</v>
   <v name="DARWINV">      1.00000000</v>
   <i type="logical" name="LCORR"> T  </i>
  </separator>
  <i type="logical" name="GGA_COMPAT"> T  </i>
  <i type="logical" name="LBERRY"> F  </i>
  <i type="int" name="ICORELEVEL">     0</i>
  <i type="logical" name="LDAU"> F  </i>
  <i type="int" name="I_CONSTRAINED_M">     0</i>
  <separator name="electronic exchange-correlation" >
   <i type="string" name="GGA    ">PE</i>
   <i type="string" name="XC_C">1</i>
   <i type="int" name="VOSKOWN">     0</i>
   <i type="logical" name="LHFCALC"> F  </i>
   <i type="string" name="PRECFOCK"></i>
   <i type="logical" name="LSYMGRAD"> F  </i>
   <i type="logical" name="LHFONE"> F  </i>
   <i type="logical" name="LRHFCALC"> F  </i>
   <i type="logical" name="LTHOMAS"> F  </i>
   <i type="logical" name="LMODELHF"> F  </i>
   <i type="logical" name="LFOCKACE"> F  </i>
   <i name="ENCUT4O">     -1.00000000</i>
   <i type="int" name="EXXOEP">     0</i>
   <i type="int" name="FOURORBIT">     0</i>
   <i name="AEXX">      0.00000000</i>
   <i name="HFALPHA">      0.00000000</i>
   <i name="MCALPHA">      0.00000000</i>
   <i name="ALDAX">      1.00000000</i>
   <i name="AGGAX">      1.00000000</i>
   <i name="AMGGAX">      1.00000000</i>
   <i name="ALDAC">      1.00000000</i>
   <i name="AGGAC">      1.00000000</i>
   <i name="AMGGAC">      1.00000000</i>
   <i type="int" name="NKREDX">     1</i>
   <i type="int" name="NKREDY">     1</i>
   <i type="int" name="NKREDZ">     1</i>
   <i type="logical" name="SHIFTRED"> F  </i>
   <i type="logical" name="ODDONLY"> F  </i>
   <i type="logical" name="EVENONLY"> F  </i>
   <i type="int" name="LMAXFOCK">     0</i>
   <i type="int" name="NMAXFOCKAE">     0</i>
   <i type="logical" name="LFOCKAEDFT"> F  </i>
   <i name="HFSCREEN">      0.00000000</i>
   <i name="HFSCREENC">      0.00000000</i>
   <i type="int" name="NBANDSGWLOW">     0</i>
  </separator>
  <separator name="vdW DFT" >
   <i type="logical" name="LUSE_VDW"> F  </i>
   <i type="int" name="IVDW_NL">    -1</i>
   <i type="logical" name="LSPIN_VDW"> F  </i>
   <i name="ZAB_VDW">     -0.84910000</i>
   <i name="GAMMA_VDW">      1.39626340</i>
   <i name="ALPHA_VDW">      0.00000000</i>
   <i name="PARAM1">      0.12340000</i>
   <i name="PARAM2">      1.00000000</i>
   <i name="BPARAM">      6.30000000</i>
   <i name="CPARAM">      0.00930000</i>
  </separator>
  <separator name="model GW" >
   <i type="int" name="MODEL_GW">     0</i>
   <i name="MODEL_EPS0">     12.09885805</i>
   <i name="MODEL_ALPHA">      1.00000000</i>
  </separator>
  <separator name="linear response parameters" >
   <i type="logical" name="LEPSILON"> F  </i>
   <i type="logical" name="LRPA"> F  </i>
   <i type="logical" name="LNABLA"> F  </i>
   <i type="logical" name="LVEL"> F  </i>
   <i name="CSHIFT">      0.10000000</i>
   <i name="OMEGAMAX">     -1.00000000</i>
   <i name="DEG_THRESHOLD">      0.00200000</i>
   <i name="RTIME">     -0.10000000</i>
   <i name="WPLASMAI">      0.00000000</i>
   <v name="DFIELD">      0.00000000      0.00000000      0.00000000</v>
   <v name="WPLASMA">      0.00000000      0.00000000      0.00000000      0.00000000      0.00000000      0.00000000      0.00000000      0.00000000      0.00000000</v>
  </separator>
  <separator name="orbital magnetization" >
   <i type="logical" name="NUCIND"> F  </i>
   <v name="MAGPOS">      0.00000000      0.00000000      0.00000000</v>
   <i type="logical" name="LNICSALL"> T  </i>
   <i type="logical" name="ORBITALMAG"> F  </i>
   <i type="logical" name="LMAGBLOCH"> F  </i>
   <i type="logical" name="LCHIMAG"> F  </i>
   <i type="logical" name="LGAUGE"> T  </i>
   <i type="int" name="MAGATOM">     0</i>
   <v name="MAGDIPOL">      0.00000000      0.00000000      0.00000000</v>
   <v name="AVECCONST">      0.00000000      0.00000000      0.00000000</v>
  </separator>
  <separator name="response functions" >
   <i type="logical" name="LALL_IN_ONE"> F  </i>
   <i type="int" name="IALL_IN_ONE">    -1</i>
   <i type="int" name="NBANDS_WAVE">    -1</i>
   <i type="logical" name="LFINITE_TEMPERATURE"> F  </i>
   <i type="logical" name="LADDER"> F  </i>
   <i type="logical" name="LRPAFORCE"> F  </i>
   <i type="logical" name="LFXC"> F  </i>
   <i type="logical" name="LHARTREE"> T  </i>
   <i type="int" name="IBSE">     0</i>
   <v type="int" name="KPOINT">    -1     0     0     0</v>
   <i type="logical" name="LTCTC"> F  </i>
   <i type="logical" name="LTCTE"> F  </i>
   <i type="logical" name="LTETE"> F  </i>
   <i type="logical" name="LTRIPLET"> F  </i>
   <i type="logical" name="LFXCEPS"> F  </i>
   <i type="logical" name="LFXHEG"> F  </i>
   <i type="int" name="NATURALO">     2</i>
   <i type="logical" name="LHOLEGF"> F  </i>
   <i type="logical" name="L2ORDER"> F  </i>
   <i type="logical" name="LDMP1"> F  </i>
   <i type="logical" name="LMP2LT"> F  </i>
   <i type="logical" name="LSMP2LT"> F  </i>
   <i type="logical" name="LGWLF"> F  </i>
   <i name="ENCUTGW">     -1.60000002</i>
   <i name="ENCUTGWSOFT">     -1.60000002</i>
   <i name="ENCUTLF">     -1.00000000</i>
   <i type="logical" name="ESF_SPLINES"> F  </i>
   <i name="ESF_CONV">      0.01000000</i>
   <i type="int" name="ESF_NINTER">    15</i>
   <i type="int" name="LMAXMP2">    -1</i>
   <i name="SCISSOR">      0.00000000</i>
   <i type="int" name="NOMEGA">     0</i>
   <i type="int" name="NOMEGAR">     0</i>
   <i type="int" name="NBANDSGW">    -1</i>
   <i type="int" name="NBANDSO">    -1</i>
   <i type="int" name="NBANDSV">    -1</i>
   <i type="int" name="NELMGW">     1</i>
   <i type="int" name="NELMHF">     1</i>
   <i type="int" name="DIM">     3</i>
   <i type="int" name="IESPILON">     4</i>
   <i type="int" name="ANTIRES">     0</i>
   <i name="OMEGAMAX">    -30.00000000</i>
   <i name="OMEGAMIN">    -30.00000000</i>
   <i name="OMEGATL">   -200.00000000</i>
   <i type="int" name="OMEGAGRID">     0</i>
   <i name="CSHIFT">     -0.10000000</i>
   <i type="logical" name="LSELFENERGY"> F  </i>
   <i type="logical" name="LSPECTRAL"> F  </i>
   <i type="logical" name="LSPECTRALGW"> F  </i>
   <i type="logical" name="LSINGLES"> F  </i>
   <i type="logical" name="LFERMIGW"> F  </i>
   <i type="logical" name="ODDONLYGW"> F  </i>
   <i type="logical" name="EVENONLYGW"> F  </i>
   <i type="int" name="NKREDLFX">     1</i>
   <i type="int" name="NKREDLFY">     1</i>
   <i type="int" name="NKREDLFZ">     1</i>
   <i type="int" name="MAXMEM">  2800</i>
   <i type="int" name="TELESCOPE">     0</i>
   <i type="int" name="NTAUPAR">    -1</i>
   <i type="int" name="NOMEGAPAR">    -1</i>
   <i name="DAMP_NEWTON">      0.80000001</i>
   <i name="LAMBDA">      1.00000000</i>
  </separator>
  <separator name="External order field" >
   <i name="OFIELD_KAPPA">      0.00000000</i>
   <v name="OFIELD_K">      0.00000000      0.00000000      0.00000000</v>
   <i name="OFIELD_Q6_NEAR">      0.00000000</i>
   <i name="OFIELD_Q6_FAR">      0.00000000</i>
   <i name="OFIELD_A">      0.00000000</i>
  </separator>
  <separator name="optional k-points parameters" >
   <i type="int" name="KPOINTS_OPT_MODE">     1</i>
   <i type="logical" name="LKPOINTS_OPT"> F  </i>
  </separator>
 </parameters>
 <atominfo>
  <atoms>       8 </atoms>
  <types>       1 </types>
  <array name="atoms" >
   <dimension dim="1">ion</dimension>
   <field type="string">element</field>
   <field type="int">atomtype</field>
   <set>
    <rc><c>Si</c><c>   1</c></rc>
    <rc><c>Si</c><c>   1</c></rc>
    <rc><c>Si</c><c>   1</c></rc>
    <rc><c>Si</c><c>   1</c></rc>
    <rc><c>Si</c><c>   1</c></rc>
    <rc><c>Si</c><c>   1</c></rc>
    <rc><c>Si</c><c>   1</c></rc>
    <rc><c>Si</c><c>   1</c></rc>
   </set>
  </array>
  <array name="atomtypes" >
   <dimension dim="1">type</dimension>
   <field type="int">atomspertype</field>
   <field type="string">element</field>
   <field>mass</field>
   <field>valence</field>
   <field type="string">pseudopotential</field>
   <set>
    <rc><c>   8</c><c>Si</c><c>     28.08500000</c><c>      4.00000000</c><c>  PAW_PBE Si 05Jan2001                  </c></rc>
   </set>
  </array>
 </atominfo>
 <structure name="initialpos" >
  <crystal>
   <varray name="basis" >
    <v>      -0.00000000       0.00000000       5.44370237 </v>
    <v>      -5.44370237       0.00000000       0.00000000 </v>
    <v>      -2.72185119      -5.44370237       2.72185119 </v>
   </varray>
   <i name="volume">    161.31810740 </i>
   <varray name="rec_basis" >
    <v>       0.00000000       0.09184925       0.18369851 </v>
    <v>      -0.18369851       0.09184925      -0.00000000 </v>
    <v>       0.00000000      -0.18369851       0.00000000 </v>
   </varray>
  </crystal>
  <varray name="positions" >
   <v>       0.00000000       0.00000000       0.00149989 </v>
   <v>       0.75000000       0.25000000       0.50000000 </v>
   <v>       0.50000000       0.50000000       0.00000000 </v>
   <v>       0.25000000       0.75000000       0.50000000 </v>
   <v>       0.37500000       0.87500000       0.75000000 </v>
   <v>       0.12500000       0.12500000       0.25000000 </v>
   <v>       0.87500000       0.37500000       0.75000000 </v>
   <v>       0.62500000       0.62500000       0.25000000 </v>
  </varray>
 </structure>
 <calculation>
  <scstep>
   <time name="dav">    1.00    1.00</time>
   <time name="total">    1.02    1.02</time>
   <energy>
    <i name="alphaZ">     13.35522965 </i>
    <i name="ewald">   -911.95071142 </i>
    <i name="hartreedc">    -44.46043289 </i>
    <i name="XCdc">    -74.52612369 </i>
    <i name="pawpsdc">    704.99039692 </i>
    <i name="pawaedc">   -564.24414232 </i>
    <i name="eentropy">     -0.00009424 </i>
    <i name="bandstr">    119.73997207 </i>
    <i name="atom">    824.53005375 </i>
    <i name="e_fr_energy">     67.43414783 </i>
    <i name="e_wo_entrp">     67.43424207 </i>
    <i name="e_0_energy">     67.43419495 </i>
   </energy>
  </scstep>
  <scstep>
   <time name="dav">    1.17    1.18</time>
   <time name="total">    1.18    1.18</time>
   <energy>
    <i name="e_fr_energy">    -38.97531875 </i>
    <i name="e_wo_entrp">    -38.97527281 </i>
    <i name="e_0_energy">    -38.97529578 </i>
   </energy>
  </scstep>
  <scstep>
   <time name="dav">    1.18    1.19</time>
   <time name="total">    1.18    1.19</time>
   <energy>
    <i name="e_fr_energy">    -44.00283060 </i>
    <i name="e_wo_entrp">    -44.00283060 </i>
    <i name="e_0_energy">    -44.00283060 </i>
   </energy>
  </scstep>
  <scstep>
   <time name="dav">    1.13    1.13</time>
   <time name="total">    1.13    1.13</time>
   <energy>
    <i name="e_fr_energy">    -44.09145233 </i>
    <i name="e_wo_entrp">    -44.09145233 </i>
    <i name="e_0_energy">    -44.09145233 </i>
   </energy>
  </scstep>
  <scstep>
   <time name="dav">    1.19    1.19</time>
   <time name="total">    1.24    1.24</time>
   <energy>
    <i name="e_fr_energy">    -44.09364475 </i>
    <i name="e_wo_entrp">    -44.09364475 </i>
    <i name="e_0_energy">    -44.09364475 </i>
   </energy>
  </scstep>
  <scstep>
   <time name="dav">    1.09    1.09</time>
   <time name="total">    1.16    1.16</time>
   <energy>
    <i name="e_fr_energy">    -43.60709710 </i>
    <i name="e_wo_entrp">    -43.60709710 </i>
    <i name="e_0_energy">    -43.60709710 </i>
   </energy>
  </scstep>
  <scstep>
   <time name="dav">    1.10    1.10</time>
   <time name="total">    1.17    1.17</time>
   <energy>
    <i name="e_fr_energy">    -43.38492298 </i>
    <i name="e_wo_entrp">    -43.38492298 </i>
    <i name="e_0_energy">    -43.38492298 </i>
   </energy>
  </scstep>
  <scstep>
   <time name="dav">    1.12    1.12</time>
   <time name="total">    1.19    1.20</time>
   <energy>
    <i name="e_fr_energy">    -43.38928690 </i>
    <i name="e_wo_entrp">    -43.38928690 </i>
    <i name="e_0_energy">    -43.38928690 </i>
   </energy>
  </scstep>
  <scstep>
   <time name="dav">    1.16    1.16</time>
   <time name="total">    1.22    1.23</time>
   <energy>
    <i name="e_fr_energy">    -43.39008229 </i>
    <i name="e_wo_entrp">    -43.39008229 </i>
    <i name="e_0_energy">    -43.39008229 </i>
   </energy>
  </scstep>
  <scstep>
   <time name="dav">    1.09    1.09</time>
   <time name="total">    1.16    1.17</time>
   <energy>
    <i name="e_fr_energy">    -43.39030047 </i>
    <i name="e_wo_entrp">    -43.39030047 </i>
    <i name="e_0_energy">    -43.39030047 </i>
   </energy>
  </scstep>
  <scstep>
   <time name="dav">    1.16    1.16</time>
   <time name="total">    1.23    1.24</time>
   <energy>
    <i name="e_fr_energy">    -43.39030015 </i>
    <i name="e_wo_entrp">    -43.39030015 </i>
    <i name="e_0_energy">    -43.39030015 </i>
   </energy>
  </scstep>
  <scstep>
   <time name="dav">    1.13    1.13</time>
   <time name="total">    1.19    1.20</time>
   <energy>
    <i name="e_fr_energy">    -43.39030134 </i>
    <i name="e_wo_entrp">    -43.39030134 </i>
    <i name="e_0_energy">    -43.39030134 </i>
   </energy>
  </scstep>
  <scstep>
   <time name="dav">    1.16    1.16</time>
   <time name="total">    1.23    1.23</time>
   <energy>
    <i name="e_fr_energy">    -43.39030102 </i>
    <i name="e_wo_entrp">    -43.39030102 </i>
    <i name="e_0_energy">    -43.39030102 </i>
   </energy>
  </scstep>
  <scstep>
   <time name="dav">    0.96    0.96</time>
   <time name="total">    1.03    1.03</time>
   <energy>
    <i name="e_fr_energy">    -43.39030109 </i>
    <i name="e_wo_entrp">    -43.39030109 </i>
    <i name="e_0_energy">    -43.39030109 </i>
   </energy>
  </scstep>
  <scstep>
   <time name="dav">    0.90    0.90</time>
   <time name="total">    0.97    0.98</time>
   <energy>
    <i name="e_fr_energy">    -43.39030104 </i>
    <i name="e_wo_entrp">    -43.39030104 </i>
    <i name="e_0_energy">    -43.39030104 </i>
   </energy>
  </scstep>
  <scstep>
   <time name="dav">    0.88    0.88</time>
   <time name="total">    0.90    0.90</time>
   <energy>
    <i name="alphaZ">     13.35522965 </i>
    <i name="ewald">   -911.95071142 </i>
    <i name="hartreedc">    -60.02674444 </i>
    <i name="XCdc">    -71.99051805 </i>
    <i name="pawpsdc">   3421.40326679 </i>
    <i name="pawaedc">  -3281.52647218 </i>
    <i name="eentropy">     -0.00000000 </i>
    <i name="bandstr">     22.81559487 </i>
    <i name="atom">    824.53005375 </i>
    <i name="e_fr_energy">    -43.39030104 </i>
    <i name="e_wo_entrp">    -43.39030104 </i>
    <i name="e_0_energy">    -43.39030104 </i>
   </energy>
  </scstep>
  <structure>
   <crystal>
    <varray name="basis" >
     <v>      -0.00000000       0.00000000       5.44370237 </v>
     <v>      -5.44370237       0.00000000       0.00000000 </v>
     <v>      -2.72185119      -5.44370237       2.72185119 </v>
    </varray>
    <i name="volume">    161.31810740 </i>
    <varray name="rec_basis" >
     <v>       0.00000000       0.09184925       0.18369851 </v>
     <v>      -0.18369851       0.09184925      -0.00000000 </v>
     <v>       0.00000000      -0.18369851       0.00000000 </v>
    </varray>
   </crystal>
   <varray name="positions" >
    <v>       0.00000000       0.00000000       0.00149989 </v>
    <v>       0.75000000       0.25000000       0.50000000 </v>
    <v>       0.50000000       0.50000000       0.00000000 </v>
    <v>       0.25000000       0.75000000       0.50000000 </v>
    <v>       0.37500000       0.87500000       0.75000000 </v>
    <v>       0.12500000       0.12500000       0.25000000 </v>
    <v>       0.87500000       0.37500000       0.75000000 </v>
    <v>       0.62500000       0.62500000       0.25000000 </v>
   </varray>
  </structure>
  <varray name="forces" >
   <v>       0.05425146       0.11099011      -0.05425146 </v>
   <v>       0.00330468      -0.00747672      -0.00001010 </v>
   <v>      -0.00181453       0.01379883       0.00181453 </v>
   <v>       0.00001010      -0.00747672      -0.00330468 </v>
   <v>      -0.02179689      -0.02726029      -0.01403091 </v>
   <v>      -0.04245785      -0.04616086       0.04245785 </v>
   <v>       0.01403091      -0.02726029       0.02179689 </v>
   <v>      -0.00552788      -0.00915405       0.00552788 </v>
  </varray>
  <varray name="stress" >
   <v>      12.53974424       0.39826736      -0.78533470 </v>
   <v>       0.39826736      12.53067890      -0.39826736 </v>
   <v>      -0.78533470      -0.39826736      12.53974424 </v>
  </varray>
  <energy>
   <i name="e_fr_energy">    -43.39030104 </i>
   <i name="e_wo_entrp">    -43.39030104 </i>
   <i name="e_0_energy">    -43.39030104 </i>
  </energy>
  <time name="totalsc">   18.98   19.06</time>
  <eigenvalues>
   <array>
    <dimension dim="1">band</dimension>
    <dimension dim="2">kpoint</dimension>
    <dimension dim="3">spin</dimension>
    <field>eigene</field>
    <field>occ</field>
    <set>
     <set comment="spin 1">
      <set comment="kpoint 1">
       <r>   -6.1549    1.0000 </r>
       <r>   -2.0439    1.0000 </r>
       <r>   -2.0306    1.0000 </r>
       <r>   -1.8871    1.0000 </r>
       <r>   -1.8761    1.0000 </r>
       <r>   -1.8714    1.0000 </r>
       <r>   -1.8687    1.0000 </r>
       <r>    1.9307    1.0000 </r>
       <r>    1.9343    1.0000 </r>
       <r>    1.9362    1.0000 </r>
       <r>    1.9375    1.0000 </r>
       <r>    2.9198    1.0000 </r>
       <r>    2.9268    1.0000 </r>
       <r>    5.7399    1.0000 </r>
       <r>    5.7568    1.0000 </r>
       <r>    5.7631    1.0000 </r>
       <r>    6.4735    0.0000 </r>
       <r>    6.4834    0.0000 </r>
       <r>    8.3103    0.0000 </r>
       <r>    8.3140    0.0000 </r>
       <r>    8.3241    0.0000 </r>
       <r>    9.0444    0.0000 </r>
       <r>   10.0182    0.0000 </r>
       <r>   10.0270    0.0000 </r>
      </set>
      <set comment="kpoint 2">
       <r>   -6.0879    1.0000 </r>
       <r>   -2.4712    1.0000 </r>
       <r>   -2.4304    1.0000 </r>
       <r>   -2.3281    1.0000 </r>
       <r>   -1.5940    1.0000 </r>
       <r>   -1.4623    1.0000 </r>
       <r>   -1.3119    1.0000 </r>
       <r>    1.6139    1.0000 </r>
       <r>    1.7340    1.0000 </r>
       <r>    2.3693    1.0000 </r>
       <r>    2.4820    1.0000 </r>
       <r>    2.7715    1.0000 </r>
       <r>    2.8034    1.0000 </r>
       <r>    5.2044    1.0000 </r>
       <r>    5.4851    1.0000 </r>
       <r>    5.6572    1.0000 </r>
       <r>    6.6897    0.0000 </r>
       <r>    6.8726    0.0000 </r>
       <r>    8.2612    0.0000 </r>
       <r>    8.5606    0.0000 </r>
       <r>    8.5655    0.0000 </r>
       <r>    8.8547    0.0000 </r>
       <r>    9.5066    0.0000 </r>
       <r>    9.6017    0.0000 </r>
      </set>
      <set comment="kpoint 3">
       <r>   -5.8876    1.0000 </r>
       <r>   -3.1698    1.0000 </r>
       <r>   -2.7415    1.0000 </r>
       <r>   -2.6748    1.0000 </r>
       <r>   -1.1954    1.0000 </r>
       <r>   -1.1680    1.0000 </r>
       <r>   -0.6447    1.0000 </r>
       <r>    1.4265    1.0000 </r>
       <r>    1.8534    1.0000 </r>
       <r>    2.4119    1.0000 </r>
       <r>    2.6216    1.0000 </r>
       <r>    2.8963    1.0000 </r>
       <r>    3.2076    1.0000 </r>
       <r>    4.1470    1.0000 </r>
       <r>    4.8681    1.0000 </r>
       <r>    5.4091    1.0000 </r>
       <r>    7.4081    0.0000 </r>
       <r>    7.7200    0.0000 </r>
       <r>    7.7405    0.0000 </r>
       <r>    8.1541    0.0000 </r>
       <r>    8.9188    0.0000 </r>
       <r>    9.0432    0.0000 </r>
       <r>    9.1452    0.0000 </r>
       <r>    9.4983    0.0000 </r>
      </set>
      <set comment="kpoint 4">
       <r>   -5.5576    1.0000 </r>
       <r>   -3.8813    1.0000 </r>
       <r>   -2.9509    1.0000 </r>
       <r>   -2.9115    1.0000 </r>
       <r>   -0.9988    1.0000 </r>
       <r>   -0.8727    1.0000 </r>
       <r>    0.1272    1.0000 </r>
       <r>    1.3777    1.0000 </r>
       <r>    2.0165    1.0000 </r>
       <r>    2.2133    1.0000 </r>
       <r>    2.6332    1.0000 </r>
       <r>    3.0339    1.0000 </r>
       <r>    3.4756    1.0000 </r>
       <r>    3.6604    1.0000 </r>
       <r>    4.1336    1.0000 </r>
       <r>    5.0476    1.0000 </r>
       <r>    7.3313    0.0000 </r>
       <r>    8.0921    0.0000 </r>
       <r>    8.4351    0.0000 </r>
       <r>    8.6056    0.0000 </r>
       <r>    8.8416    0.0000 </r>
       <r>    9.2756    0.0000 </r>
       <r>    9.4698    0.0000 </r>
       <r>    9.8966    0.0000 </r>
      </set>
      <set comment="kpoint 5">
       <r>   -5.1041    1.0000 </r>
       <r>   -4.5385    1.0000 </r>
       <r>   -3.0520    1.0000 </r>
       <r>   -3.0355    1.0000 </r>
       <r>   -0.8494    1.0000 </r>
       <r>   -0.7777    1.0000 </r>
       <r>    1.0019    1.0000 </r>
       <r>    1.4671    1.0000 </r>
       <r>    1.6866    1.0000 </r>
       <r>    1.9749    1.0000 </r>
       <r>    2.7468    1.0000 </r>
       <r>    2.9509    1.0000 </r>
       <r>    3.4036    1.0000 </r>
       <r>    3.4405    1.0000 </r>
       <r>    4.0575    1.0000 </r>
       <r>    4.5923    1.0000 </r>
       <r>    8.0005    0.0000 </r>
       <r>    8.1336    0.0000 </r>
       <r>    8.3023    0.0000 </r>
       <r>    9.3251    0.0000 </r>
       <r>    9.5569    0.0000 </r>
       <r>    9.6091    0.0000 </r>
       <r>    9.6434    0.0000 </r>
       <r>    9.8766    0.0000 </r>
      </set>
      <set comment="kpoint 6">
       <r>   -5.9944    1.0000 </r>
       <r>   -2.8020    1.0000 </r>
       <r>   -2.6248    1.0000 </r>
       <r>   -2.6159    1.0000 </r>
       <r>   -1.2263    1.0000 </r>
       <r>   -1.2226    1.0000 </r>
       <r>   -1.1600    1.0000 </r>
       <r>    1.7037    1.0000 </r>
       <r>    1.7079    1.0000 </r>
       <r>    2.4274    1.0000 </r>
       <r>    2.7044    1.0000 </r>
       <r>    2.7074    1.0000 </r>
       <r>    3.0602    1.0000 </r>
       <r>    4.4121    1.0000 </r>
       <r>    5.5089    1.0000 </r>
       <r>    5.5267    1.0000 </r>
       <r>    6.6201    0.0000 </r>
       <r>    7.4998    0.0000 </r>
       <r>    8.2815    0.0000 </r>
       <r>    8.3438    0.0000 </r>
       <r>    8.3505    0.0000 </r>
       <r>    8.6573    0.0000 </r>
       <r>    8.6689    0.0000 </r>
       <r>   10.0250    0.0000 </r>
      </set>
      <set comment="kpoint 7">
       <r>   -5.7693    1.0000 </r>
       <r>   -3.2702    1.0000 </r>
       <r>   -3.0855    1.0000 </r>
       <r>   -2.7880    1.0000 </r>
       <r>   -1.1549    1.0000 </r>
       <r>   -0.8023    1.0000 </r>
       <r>   -0.6221    1.0000 </r>
       <r>    1.6059    1.0000 </r>
       <r>    2.0321    1.0000 </r>
       <r>    2.1556    1.0000 </r>
       <r>    3.0787    1.0000 </r>
       <r>    3.0822    1.0000 </r>
       <r>    3.3310    1.0000 </r>
       <r>    3.3656    1.0000 </r>
       <r>    4.9775    1.0000 </r>
       <r>    5.3877    1.0000 </r>
       <r>    7.0812    0.0000 </r>
       <r>    7.3959    0.0000 </r>
       <r>    7.9875    0.0000 </r>
       <r>    8.2555    0.0000 </r>
       <r>    8.4949    0.0000 </r>
       <r>    8.7425    0.0000 </r>
       <r>    9.2069    0.0000 </r>
       <r>    9.6745    0.0000 </r>
      </set>
      <set comment="kpoint 8">
       <r>   -5.4171    1.0000 </r>
       <r>   -3.9621    1.0000 </r>
       <r>   -3.2663    1.0000 </r>
       <r>   -2.8911    1.0000 </r>
       <r>   -1.0974    1.0000 </r>
       <r>   -0.6324    1.0000 </r>
       <r>    0.1291    1.0000 </r>
       <r>    1.5879    1.0000 </r>
       <r>    2.0374    1.0000 </r>
       <r>    2.3247    1.0000 </r>
       <r>    2.5480    1.0000 </r>
       <r>    3.0831    1.0000 </r>
       <r>    3.5127    1.0000 </r>
       <r>    3.5482    1.0000 </r>
       <r>    4.2519    1.0000 </r>
       <r>    5.0839    1.0000 </r>
       <r>    7.3288    0.0000 </r>
       <r>    7.7874    0.0000 </r>
       <r>    7.9892    0.0000 </r>
       <r>    8.3460    0.0000 </r>
       <r>    8.9474    0.0000 </r>
       <r>    9.5165    0.0000 </r>
       <r>    9.6734    0.0000 </r>
       <r>    9.7584    0.0000 </r>
      </set>
      <set comment="kpoint 9">
       <r>   -4.9465    1.0000 </r>
       <r>   -4.5995    1.0000 </r>
       <r>   -3.3373    1.0000 </r>
       <r>   -2.9077    1.0000 </r>
       <r>   -1.0461    1.0000 </r>
       <r>   -0.6586    1.0000 </r>
       <r>    0.9900    1.0000 </r>
       <r>    1.3572    1.0000 </r>
       <r>    1.6504    1.0000 </r>
       <r>    1.9275    1.0000 </r>
       <r>    3.1902    1.0000 </r>
       <r>    3.2008    1.0000 </r>
       <r>    3.3666    1.0000 </r>
       <r>    3.4975    1.0000 </r>
       <r>    3.9373    1.0000 </r>
       <r>    4.6631    1.0000 </r>
       <r>    7.7348    0.0000 </r>
       <r>    8.2778    0.0000 </r>
       <r>    8.4104    0.0000 </r>
       <r>    9.0713    0.0000 </r>
       <r>    9.1758    0.0000 </r>
       <r>    9.2215    0.0000 </r>
       <r>    9.5919    0.0000 </r>
       <r>   10.2635    0.0000 </r>
      </set>
      <set comment="kpoint 10">
       <r>   -5.1423    1.0000 </r>
       <r>   -4.3737    1.0000 </r>
       <r>   -3.2975    1.0000 </r>
       <r>   -2.8301    1.0000 </r>
       <r>   -1.0520    1.0000 </r>
       <r>   -0.7781    1.0000 </r>
       <r>    0.4917    1.0000 </r>
       <r>    1.7273    1.0000 </r>
       <r>    1.7861    1.0000 </r>
       <r>    1.9443    1.0000 </r>
       <r>    2.8026    1.0000 </r>
       <r>    2.8272    1.0000 </r>
       <r>    3.7808    1.0000 </r>
       <r>    3.9302    1.0000 </r>
       <r>    4.1570    1.0000 </r>
       <r>    4.3224    1.0000 </r>
       <r>    7.7985    0.0000 </r>
       <r>    7.9079    0.0000 </r>
       <r>    8.5192    0.0000 </r>
       <r>    8.9523    0.0000 </r>
       <r>    9.3469    0.0000 </r>
       <r>    9.6941    0.0000 </r>
       <r>    9.7595    0.0000 </r>
       <r>   10.2349    0.0000 </r>
      </set>
      <set comment="kpoint 11">
       <r>   -5.5708    1.0000 </r>
       <r>   -3.7302    1.0000 </r>
       <r>   -3.1499    1.0000 </r>
       <r>   -2.6563    1.0000 </r>
       <r>   -1.2070    1.0000 </r>
       <r>   -0.9137    1.0000 </r>
       <r>   -0.2537    1.0000 </r>
       <r>    1.6866    1.0000 </r>
       <r>    1.7890    1.0000 </r>
       <r>    2.2249    1.0000 </r>
       <r>    2.7962    1.0000 </r>
       <r>    2.9681    1.0000 </r>
       <r>    3.6066    1.0000 </r>
       <r>    3.7731    1.0000 </r>
       <r>    4.6151    1.0000 </r>
       <r>    4.7352    1.0000 </r>
       <r>    7.5873    0.0000 </r>
       <r>    7.8256    0.0000 </r>
       <r>    7.9549    0.0000 </r>
       <r>    8.7244    0.0000 </r>
       <r>    9.2730    0.0000 </r>
       <r>    9.3601    0.0000 </r>
       <r>    9.4843    0.0000 </r>
       <r>    9.9560    0.0000 </r>
      </set>
      <set comment="kpoint 12">
       <r>   -5.8745    1.0000 </r>
       <r>   -3.0836    1.0000 </r>
       <r>   -2.9026    1.0000 </r>
       <r>   -2.3903    1.0000 </r>
       <r>   -1.5406    1.0000 </r>
       <r>   -1.0565    1.0000 </r>
       <r>   -0.8545    1.0000 </r>
       <r>    1.6563    1.0000 </r>
       <r>    1.8193    1.0000 </r>
       <r>    1.9883    1.0000 </r>
       <r>    2.9564    1.0000 </r>
       <r>    3.0693    1.0000 </r>
       <r>    3.1925    1.0000 </r>
       <r>    4.0061    1.0000 </r>
       <r>    4.9755    1.0000 </r>
       <r>    5.3645    1.0000 </r>
       <r>    6.9660    0.0000 </r>
       <r>    8.1913    0.0000 </r>
       <r>    8.2774    0.0000 </r>
       <r>    8.3464    0.0000 </r>
       <r>    8.8066    0.0000 </r>
       <r>    9.0318    0.0000 </r>
       <r>    9.2027    0.0000 </r>
       <r>    9.4185    0.0000 </r>
      </set>
      <set comment="kpoint 13">
       <r>   -6.0478    1.0000 </r>
       <r>   -2.5901    1.0000 </r>
       <r>   -2.5789    1.0000 </r>
       <r>   -2.0963    1.0000 </r>
       <r>   -1.9138    1.0000 </r>
       <r>   -1.2524    1.0000 </r>
       <r>   -1.2431    1.0000 </r>
       <r>    1.6522    1.0000 </r>
       <r>    1.6565    1.0000 </r>
       <r>    2.3658    1.0000 </r>
       <r>    2.6110    1.0000 </r>
       <r>    2.6173    1.0000 </r>
       <r>    3.0054    1.0000 </r>
       <r>    4.8887    1.0000 </r>
       <r>    5.3309    1.0000 </r>
       <r>    5.6944    1.0000 </r>
       <r>    6.5724    0.0000 </r>
       <r>    7.4080    0.0000 </r>
       <r>    8.4322    0.0000 </r>
       <r>    8.5074    0.0000 </r>
       <r>    8.5671    0.0000 </r>
       <r>    9.3570    0.0000 </r>
       <r>    9.3684    0.0000 </r>
       <r>    9.6628    0.0000 </r>
      </set>
      <set comment="kpoint 14">
       <r>   -5.5229    1.0000 </r>
       <r>   -3.3520    1.0000 </r>
       <r>   -3.3125    1.0000 </r>
       <r>   -3.3045    1.0000 </r>
       <r>   -0.7181    1.0000 </r>
       <r>   -0.7167    1.0000 </r>
       <r>   -0.6158    1.0000 </r>
       <r>    2.0813    1.0000 </r>
       <r>    2.0896    1.0000 </r>
       <r>    2.1296    1.0000 </r>
       <r>    2.3454    1.0000 </r>
       <r>    3.4420    1.0000 </r>
       <r>    3.4896    1.0000 </r>
       <r>    3.4906    1.0000 </r>
       <r>    5.0884    1.0000 </r>
       <r>    5.1046    1.0000 </r>
       <r>    7.1210    0.0000 </r>
       <r>    7.2804    0.0000 </r>
       <r>    7.2870    0.0000 </r>
       <r>    7.8655    0.0000 </r>
       <r>    9.1821    0.0000 </r>
       <r>    9.1972    0.0000 </r>
       <r>    9.5928    0.0000 </r>
       <r>   10.1297    0.0000 </r>
      </set>
      <set comment="kpoint 15">
       <r>   -5.1557    1.0000 </r>
       <r>   -3.9449    1.0000 </r>
       <r>   -3.5174    1.0000 </r>
       <r>   -3.2631    1.0000 </r>
       <r>   -0.8252    1.0000 </r>
       <r>   -0.6556    1.0000 </r>
       <r>   -0.0481    1.0000 </r>
       <r>    1.3611    1.0000 </r>
       <r>    2.0757    1.0000 </r>
       <r>    2.3903    1.0000 </r>
       <r>    2.7271    1.0000 </r>
       <r>    3.4884    1.0000 </r>
       <r>    3.6120    1.0000 </r>
       <r>    3.6590    1.0000 </r>
       <r>    4.5906    1.0000 </r>
       <r>    4.9676    1.0000 </r>
       <r>    7.4098    0.0000 </r>
       <r>    7.5715    0.0000 </r>
       <r>    7.6985    0.0000 </r>
       <r>    7.8690    0.0000 </r>
       <r>    9.1101    0.0000 </r>
       <r>    9.5125    0.0000 </r>
       <r>    9.9390    0.0000 </r>
       <r>   10.3347    0.0000 </r>
      </set>
      <set comment="kpoint 16">
       <r>   -4.6826    1.0000 </r>
       <r>   -4.5455    1.0000 </r>
       <r>   -3.5796    1.0000 </r>
       <r>   -3.1282    1.0000 </r>
       <r>   -0.9197    1.0000 </r>
       <r>   -0.7968    1.0000 </r>
       <r>    0.4797    1.0000 </r>
       <r>    0.7575    1.0000 </r>
       <r>    1.9440    1.0000 </r>
       <r>    2.6079    1.0000 </r>
       <r>    3.2269    1.0000 </r>
       <r>    3.3620    1.0000 </r>
       <r>    3.8441    1.0000 </r>
       <r>    3.9242    1.0000 </r>
       <r>    3.9330    1.0000 </r>
       <r>    4.6646    1.0000 </r>
       <r>    7.7143    0.0000 </r>
       <r>    8.1209    0.0000 </r>
       <r>    8.6169    0.0000 </r>
       <r>    8.7172    0.0000 </r>
       <r>    8.9548    0.0000 </r>
       <r>    9.0573    0.0000 </r>
       <r>    9.4512    0.0000 </r>
       <r>    9.7934    0.0000 </r>
      </set>
      <set comment="kpoint 17">
       <r>   -5.0566    1.0000 </r>
       <r>   -4.1348    1.0000 </r>
       <r>   -3.5388    1.0000 </r>
       <r>   -2.9098    1.0000 </r>
       <r>   -1.0430    1.0000 </r>
       <r>   -0.9241    1.0000 </r>
       <r>   -0.2566    1.0000 </r>
       <r>    1.6497    1.0000 </r>
       <r>    1.6610    1.0000 </r>
       <r>    2.5808    1.0000 </r>
       <r>    3.1880    1.0000 </r>
       <r>    3.2425    1.0000 </r>
       <r>    3.7232    1.0000 </r>
       <r>    4.1110    1.0000 </r>
       <r>    4.2707    1.0000 </r>
       <r>    4.5082    1.0000 </r>
       <r>    7.9742    0.0000 </r>
       <r>    8.0862    0.0000 </r>
       <r>    8.2693    0.0000 </r>
       <r>    8.3642    0.0000 </r>
       <r>    9.0054    0.0000 </r>
       <r>    9.5129    0.0000 </r>
       <r>    9.8081    0.0000 </r>
       <r>   10.2712    0.0000 </r>
      </set>
      <set comment="kpoint 18">
       <r>   -5.4551    1.0000 </r>
       <r>   -3.5839    1.0000 </r>
       <r>   -3.4009    1.0000 </r>
       <r>   -2.6251    1.0000 </r>
       <r>   -1.2710    1.0000 </r>
       <r>   -0.9919    1.0000 </r>
       <r>   -0.7876    1.0000 </r>
       <r>    1.4821    1.0000 </r>
       <r>    2.4176    1.0000 </r>
       <r>    2.5944    1.0000 </r>
       <r>    2.6123    1.0000 </r>
       <r>    3.2857    1.0000 </r>
       <r>    3.8350    1.0000 </r>
       <r>    3.9021    1.0000 </r>
       <r>    3.9953    1.0000 </r>
       <r>    5.1556    1.0000 </r>
       <r>    7.3430    0.0000 </r>
       <r>    8.0399    0.0000 </r>
       <r>    8.4558    0.0000 </r>
       <r>    8.6147    0.0000 </r>
       <r>    8.9453    0.0000 </r>
       <r>    9.0014    0.0000 </r>
       <r>    9.7064    0.0000 </r>
       <r>    9.7684    0.0000 </r>
      </set>
      <set comment="kpoint 19">
       <r>   -5.7296    1.0000 </r>
       <r>   -3.1873    1.0000 </r>
       <r>   -3.1757    1.0000 </r>
       <r>   -2.3442    1.0000 </r>
       <r>   -1.5658    1.0000 </r>
       <r>   -1.0117    1.0000 </r>
       <r>   -1.0007    1.0000 </r>
       <r>    1.6079    1.0000 </r>
       <r>    2.1007    1.0000 </r>
       <r>    2.1107    1.0000 </r>
       <r>    3.2564    1.0000 </r>
       <r>    3.4130    1.0000 </r>
       <r>    3.4200    1.0000 </r>
       <r>    3.4417    1.0000 </r>
       <r>    4.3987    1.0000 </r>
       <r>    5.5214    1.0000 </r>
       <r>    6.8630    0.0000 </r>
       <r>    8.7417    0.0000 </r>
       <r>    8.7634    0.0000 </r>
       <r>    8.9315    0.0000 </r>
       <r>    8.9434    0.0000 </r>
       <r>    8.9587    0.0000 </r>
       <r>    8.9708    0.0000 </r>
       <r>    8.9725    0.0000 </r>
      </set>
      <set comment="kpoint 20">
       <r>   -4.7874    1.0000 </r>
       <r>   -3.8264    1.0000 </r>
       <r>   -3.8175    1.0000 </r>
       <r>   -3.6783    1.0000 </r>
       <r>   -0.8304    1.0000 </r>
       <r>   -0.2456    1.0000 </r>
       <r>   -0.2426    1.0000 </r>
       <r>    0.4439    1.0000 </r>
       <r>    2.5481    1.0000 </r>
       <r>    2.5495    1.0000 </r>
       <r>    2.9952    1.0000 </r>
       <r>    3.6402    1.0000 </r>
       <r>    3.6477    1.0000 </r>
       <r>    3.9951    1.0000 </r>
       <r>    4.7523    1.0000 </r>
       <r>    4.7680    1.0000 </r>
       <r>    7.4942    0.0000 </r>
       <r>    7.8008    0.0000 </r>
       <r>    8.0011    0.0000 </r>
       <r>    8.0059    0.0000 </r>
       <r>    9.2509    0.0000 </r>
       <r>    9.2689    0.0000 </r>
       <r>    9.8533    0.0000 </r>
       <r>    9.9410    0.0000 </r>
      </set>
      <set comment="kpoint 21">
       <r>   -4.3746    1.0000 </r>
       <r>   -4.3432    1.0000 </r>
       <r>   -3.7437    1.0000 </r>
       <r>   -3.5959    1.0000 </r>
       <r>   -1.0008    1.0000 </r>
       <r>   -0.4340    1.0000 </r>
       <r>   -0.3358    1.0000 </r>
       <r>    0.4970    1.0000 </r>
       <r>    2.0580    1.0000 </r>
       <r>    2.7974    1.0000 </r>
       <r>    3.4993    1.0000 </r>
       <r>    3.6744    1.0000 </r>
       <r>    4.1573    1.0000 </r>
       <r>    4.2469    1.0000 </r>
       <r>    4.3822    1.0000 </r>
       <r>    4.6388    1.0000 </r>
       <r>    7.5853    0.0000 </r>
       <r>    8.1109    0.0000 </r>
       <r>    8.5207    0.0000 </r>
       <r>    8.8127    0.0000 </r>
       <r>    8.9653    0.0000 </r>
       <r>    9.0901    0.0000 </r>
       <r>    9.2772    0.0000 </r>
       <r>    9.3463    0.0000 </r>
      </set>
      <set comment="kpoint 22">
       <r>   -4.8475    1.0000 </r>
       <r>   -3.8971    1.0000 </r>
       <r>   -3.7144    1.0000 </r>
       <r>   -3.2817    1.0000 </r>
       <r>   -1.0915    1.0000 </r>
       <r>   -0.8897    1.0000 </r>
       <r>   -0.6669    1.0000 </r>
       <r>    1.3054    1.0000 </r>
       <r>    1.5837    1.0000 </r>
       <r>    2.9940    1.0000 </r>
       <r>    3.5558    1.0000 </r>
       <r>    3.7433    1.0000 </r>
       <r>    3.8064    1.0000 </r>
       <r>    4.3658    1.0000 </r>
       <r>    4.3934    1.0000 </r>
       <r>    4.7788    1.0000 </r>
       <r>    7.8630    0.0000 </r>
       <r>    7.9463    0.0000 </r>
       <r>    7.9552    0.0000 </r>
       <r>    8.8237    0.0000 </r>
       <r>    8.9653    0.0000 </r>
       <r>    9.1162    0.0000 </r>
       <r>    9.1734    0.0000 </r>
       <r>    9.5959    0.0000 </r>
      </set>
      <set comment="kpoint 23">
       <r>   -5.2120    1.0000 </r>
       <r>   -3.6052    1.0000 </r>
       <r>   -3.5933    1.0000 </r>
       <r>   -2.9178    1.0000 </r>
       <r>   -1.0822    1.0000 </r>
       <r>   -1.0702    1.0000 </r>
       <r>   -0.9883    1.0000 </r>
       <r>    1.3798    1.0000 </r>
       <r>    2.0522    1.0000 </r>
       <r>    3.1699    1.0000 </r>
       <r>    3.1832    1.0000 </r>
       <r>    3.3605    1.0000 </r>
       <r>    3.6537    1.0000 </r>
       <r>    4.1119    1.0000 </r>
       <r>    4.1193    1.0000 </r>
       <r>    5.1842    1.0000 </r>
       <r>    7.3234    0.0000 </r>
       <r>    8.3214    0.0000 </r>
       <r>    8.3252    0.0000 </r>
       <r>    8.7715    0.0000 </r>
       <r>    8.8650    0.0000 </r>
       <r>    8.8777    0.0000 </r>
       <r>    9.3120    0.0000 </r>
       <r>    9.5852    0.0000 </r>
      </set>
      <set comment="kpoint 24">
       <r>   -4.0963    1.0000 </r>
       <r>   -4.0878    1.0000 </r>
       <r>   -4.0031    1.0000 </r>
       <r>   -3.8206    1.0000 </r>
       <r>   -1.1425    1.0000 </r>
       <r>   -0.9416    1.0000 </r>
       <r>    0.2057    1.0000 </r>
       <r>    0.2078    1.0000 </r>
       <r>    2.1435    1.0000 </r>
       <r>    2.1493    1.0000 </r>
       <r>    4.2629    1.0000 </r>
       <r>    4.2747    1.0000 </r>
       <r>    4.2792    1.0000 </r>
       <r>    4.4854    1.0000 </r>
       <r>    4.5773    1.0000 </r>
       <r>    4.5933    1.0000 </r>
       <r>    7.2939    0.0000 </r>
       <r>    7.5516    0.0000 </r>
       <r>    8.4362    0.0000 </r>
       <r>    8.4494    0.0000 </r>
       <r>    9.0417    0.0000 </r>
       <r>    9.1125    0.0000 </r>
       <r>    9.1315    0.0000 </r>
       <r>    9.2580    0.0000 </r>
      </set>
      <set comment="kpoint 25">
       <r>   -4.5211    1.0000 </r>
       <r>   -3.8187    1.0000 </r>
       <r>   -3.8067    1.0000 </r>
       <r>   -3.7139    1.0000 </r>
       <r>   -1.1759    1.0000 </r>
       <r>   -1.1636    1.0000 </r>
       <r>   -0.1866    1.0000 </r>
       <r>    0.8318    1.0000 </r>
       <r>    1.7133    1.0000 </r>
       <r>    2.4223    1.0000 </r>
       <r>    4.1575    1.0000 </r>
       <r>    4.3225    1.0000 </r>
       <r>    4.3384    1.0000 </r>
       <r>    4.5048    1.0000 </r>
       <r>    4.5124    1.0000 </r>
       <r>    4.7006    1.0000 </r>
       <r>    7.4860    0.0000 </r>
       <r>    7.4889    0.0000 </r>
       <r>    7.8995    0.0000 </r>
       <r>    8.4616    0.0000 </r>
       <r>    9.0421    0.0000 </r>
       <r>    9.0555    0.0000 </r>
       <r>    9.2082    0.0000 </r>
       <r>    9.2199    0.0000 </r>
      </set>
      <set comment="kpoint 26">
       <r>   -6.0870    1.0000 </r>
       <r>   -2.9545    1.0000 </r>
       <r>   -1.9133    1.0000 </r>
       <r>   -1.9016    1.0000 </r>
       <r>   -1.8972    1.0000 </r>
       <r>   -1.8944    1.0000 </r>
       <r>   -1.0379    1.0000 </r>
       <r>    2.0495    1.0000 </r>
       <r>    2.0517    1.0000 </r>
       <r>    2.0551    1.0000 </r>
       <r>    2.0559    1.0000 </r>
       <r>    2.9811    1.0000 </r>
       <r>    2.9881    1.0000 </r>
       <r>    5.3295    1.0000 </r>
       <r>    5.4853    1.0000 </r>
       <r>    5.5017    1.0000 </r>
       <r>    6.3452    0.0000 </r>
       <r>    6.7954    0.0000 </r>
       <r>    8.1558    0.0000 </r>
       <r>    8.6551    0.0000 </r>
       <r>    8.6638    0.0000 </r>
       <r>    8.9191    0.0000 </r>
       <r>    8.9247    0.0000 </r>
       <r>    8.9332    0.0000 </r>
      </set>
      <set comment="kpoint 27">
       <r>   -6.0803    1.0000 </r>
       <r>   -2.5325    1.0000 </r>
       <r>   -2.4852    1.0000 </r>
       <r>   -2.3177    1.0000 </r>
       <r>   -1.4846    1.0000 </r>
       <r>   -1.4761    1.0000 </r>
       <r>   -1.3020    1.0000 </r>
       <r>    1.6153    1.0000 </r>
       <r>    1.7601    1.0000 </r>
       <r>    2.3704    1.0000 </r>
       <r>    2.5016    1.0000 </r>
       <r>    2.7752    1.0000 </r>
       <r>    2.8141    1.0000 </r>
       <r>    5.1208    1.0000 </r>
       <r>    5.4554    1.0000 </r>
       <r>    5.6891    1.0000 </r>
       <r>    6.6774    0.0000 </r>
       <r>    6.9049    0.0000 </r>
       <r>    8.2989    0.0000 </r>
       <r>    8.5464    0.0000 </r>
       <r>    8.5575    0.0000 </r>
       <r>    8.7072    0.0000 </r>
       <r>    9.4491    0.0000 </r>
       <r>    9.5711    0.0000 </r>
      </set>
      <set comment="kpoint 28">
       <r>   -5.9396    1.0000 </r>
       <r>   -2.9583    1.0000 </r>
       <r>   -2.8979    1.0000 </r>
       <r>   -2.0737    1.0000 </r>
       <r>   -1.8735    1.0000 </r>
       <r>   -0.9434    1.0000 </r>
       <r>   -0.8803    1.0000 </r>
       <r>    1.5317    1.0000 </r>
       <r>    1.5855    1.0000 </r>
       <r>    2.4383    1.0000 </r>
       <r>    2.4641    1.0000 </r>
       <r>    3.0054    1.0000 </r>
       <r>    3.0437    1.0000 </r>
       <r>    4.6219    1.0000 </r>
       <r>    5.0784    1.0000 </r>
       <r>    5.0958    1.0000 </r>
       <r>    7.4802    0.0000 </r>
       <r>    7.5189    0.0000 </r>
       <r>    7.8700    0.0000 </r>
       <r>    8.6211    0.0000 </r>
       <r>    8.9061    0.0000 </r>
       <r>    9.2405    0.0000 </r>
       <r>    9.2486    0.0000 </r>
       <r>   10.0023    0.0000 </r>
      </set>
      <set comment="kpoint 29">
       <r>   -5.6665    1.0000 </r>
       <r>   -3.5647    1.0000 </r>
       <r>   -3.3140    1.0000 </r>
       <r>   -2.1809    1.0000 </r>
       <r>   -1.6568    1.0000 </r>
       <r>   -0.5907    1.0000 </r>
       <r>   -0.2973    1.0000 </r>
       <r>    1.5380    1.0000 </r>
       <r>    1.7567    1.0000 </r>
       <r>    2.0757    1.0000 </r>
       <r>    2.2283    1.0000 </r>
       <r>    3.6401    1.0000 </r>
       <r>    3.6456    1.0000 </r>
       <r>    3.7328    1.0000 </r>
       <r>    4.5376    1.0000 </r>
       <r>    4.6264    1.0000 </r>
       <r>    7.5084    0.0000 </r>
       <r>    7.9575    0.0000 </r>
       <r>    8.4618    0.0000 </r>
       <r>    8.5622    0.0000 </r>
       <r>    8.6503    0.0000 </r>
       <r>    9.8824    0.0000 </r>
       <r>    9.9239    0.0000 </r>
       <r>   10.0720    0.0000 </r>
      </set>
      <set comment="kpoint 30">
       <r>   -5.2649    1.0000 </r>
       <r>   -4.2252    1.0000 </r>
       <r>   -3.5510    1.0000 </r>
       <r>   -2.3928    1.0000 </r>
       <r>   -1.3866    1.0000 </r>
       <r>   -0.3653    1.0000 </r>
       <r>    0.4607    1.0000 </r>
       <r>    1.6195    1.0000 </r>
       <r>    1.7504    1.0000 </r>
       <r>    2.2087    1.0000 </r>
       <r>    2.3114    1.0000 </r>
       <r>    2.5401    1.0000 </r>
       <r>    3.9240    1.0000 </r>
       <r>    4.0410    1.0000 </r>
       <r>    4.2387    1.0000 </r>
       <r>    4.2457    1.0000 </r>
       <r>    7.3108    0.0000 </r>
       <r>    7.8315    0.0000 </r>
       <r>    8.7497    0.0000 </r>
       <r>    9.4202    0.0000 </r>
       <r>    9.5263    0.0000 </r>
       <r>    9.6001    0.0000 </r>
       <r>    9.7019    0.0000 </r>
       <r>   10.4456    0.0000 </r>
      </set>
      <set comment="kpoint 31">
       <r>   -4.8210    1.0000 </r>
       <r>   -4.7420    1.0000 </r>
       <r>   -3.6667    1.0000 </r>
       <r>   -2.5038    1.0000 </r>
       <r>   -1.3092    1.0000 </r>
       <r>   -0.1901    1.0000 </r>
       <r>    1.3275    1.0000 </r>
       <r>    1.4745    1.0000 </r>
       <r>    1.5368    1.0000 </r>
       <r>    1.8249    1.0000 </r>
       <r>    2.7119    1.0000 </r>
       <r>    2.8249    1.0000 </r>
       <r>    3.3098    1.0000 </r>
       <r>    3.7131    1.0000 </r>
       <r>    3.8286    1.0000 </r>
       <r>    4.7967    1.0000 </r>
       <r>    7.3004    0.0000 </r>
       <r>    8.5949    0.0000 </r>
       <r>    8.7295    0.0000 </r>
       <r>    8.8334    0.0000 </r>
       <r>    8.8456    0.0000 </r>
       <r>    9.2390    0.0000 </r>
       <r>    9.7899    0.0000 </r>
       <r>   10.4905    0.0000 </r>
      </set>
      <set comment="kpoint 32">
       <r>   -5.3193    1.0000 </r>
       <r>   -4.1107    1.0000 </r>
       <r>   -3.6609    1.0000 </r>
       <r>   -2.5114    1.0000 </r>
       <r>   -1.3666    1.0000 </r>
       <r>   -0.1215    1.0000 </r>
       <r>    0.4875    1.0000 </r>
       <r>    1.4556    1.0000 </r>
       <r>    2.1370    1.0000 </r>
       <r>    2.2959    1.0000 </r>
       <r>    2.7582    1.0000 </r>
       <r>    3.2133    1.0000 </r>
       <r>    3.2421    1.0000 </r>
       <r>    3.3740    1.0000 </r>
       <r>    3.5541    1.0000 </r>
       <r>    5.2366    1.0000 </r>
       <r>    7.3709    0.0000 </r>
       <r>    7.4691    0.0000 </r>
       <r>    8.4930    0.0000 </r>
       <r>    8.5418    0.0000 </r>
       <r>    8.8247    0.0000 </r>
       <r>    9.0429    0.0000 </r>
       <r>    9.2865    0.0000 </r>
       <r>    9.6029    0.0000 </r>
      </set>
      <set comment="kpoint 33">
       <r>   -5.7024    1.0000 </r>
       <r>   -3.5359    1.0000 </r>
       <r>   -3.3937    1.0000 </r>
       <r>   -2.4141    1.0000 </r>
       <r>   -1.4863    1.0000 </r>
       <r>   -0.4087    1.0000 </r>
       <r>   -0.2525    1.0000 </r>
       <r>    1.5162    1.0000 </r>
       <r>    2.3243    1.0000 </r>
       <r>    2.5162    1.0000 </r>
       <r>    2.8971    1.0000 </r>
       <r>    2.9818    1.0000 </r>
       <r>    3.3013    1.0000 </r>
       <r>    3.3474    1.0000 </r>
       <r>    4.3345    1.0000 </r>
       <r>    5.5063    1.0000 </r>
       <r>    6.9826    0.0000 </r>
       <r>    7.4515    0.0000 </r>
       <r>    7.8038    0.0000 </r>
       <r>    8.1363    0.0000 </r>
       <r>    8.4073    0.0000 </r>
       <r>    8.7532    0.0000 </r>
       <r>    8.7673    0.0000 </r>
       <r>    9.0189    0.0000 </r>
      </set>
      <set comment="kpoint 34">
       <r>   -5.9601    1.0000 </r>
       <r>   -3.2964    1.0000 </r>
       <r>   -2.6336    1.0000 </r>
       <r>   -2.2104    1.0000 </r>
       <r>   -1.6510    1.0000 </r>
       <r>   -1.2060    1.0000 </r>
       <r>   -0.5932    1.0000 </r>
       <r>    1.7175    1.0000 </r>
       <r>    2.0651    1.0000 </r>
       <r>    2.4418    1.0000 </r>
       <r>    2.7423    1.0000 </r>
       <r>    2.8631    1.0000 </r>
       <r>    2.9669    1.0000 </r>
       <r>    4.4339    1.0000 </r>
       <r>    5.0553    1.0000 </r>
       <r>    5.5663    1.0000 </r>
       <r>    6.6470    0.0000 </r>
       <r>    7.2515    0.0000 </r>
       <r>    7.6612    0.0000 </r>
       <r>    8.2837    0.0000 </r>
       <r>    8.2942    0.0000 </r>
       <r>    8.5639    0.0000 </r>
       <r>    8.7355    0.0000 </r>
       <r>    8.8656    0.0000 </r>
      </set>
      <set comment="kpoint 35">
       <r>   -6.0468    1.0000 </r>
       <r>   -2.5924    1.0000 </r>
       <r>   -2.5828    1.0000 </r>
       <r>   -2.1349    1.0000 </r>
       <r>   -1.8747    1.0000 </r>
       <r>   -1.2438    1.0000 </r>
       <r>   -1.2414    1.0000 </r>
       <r>    1.6483    1.0000 </r>
       <r>    1.6518    1.0000 </r>
       <r>    2.3595    1.0000 </r>
       <r>    2.6174    1.0000 </r>
       <r>    2.6200    1.0000 </r>
       <r>    3.0134    1.0000 </r>
       <r>    4.8585    1.0000 </r>
       <r>    5.3420    1.0000 </r>
       <r>    5.7103    1.0000 </r>
       <r>    6.5830    0.0000 </r>
       <r>    7.4001    0.0000 </r>
       <r>    8.4247    0.0000 </r>
       <r>    8.4992    0.0000 </r>
       <r>    8.5831    0.0000 </r>
       <r>    9.2989    0.0000 </r>
       <r>    9.3059    0.0000 </r>
       <r>    9.7190    0.0000 </r>
      </set>
      <set comment="kpoint 36">
       <r>   -5.8801    1.0000 </r>
       <r>   -3.0610    1.0000 </r>
       <r>   -2.9271    1.0000 </r>
       <r>   -2.3014    1.0000 </r>
       <r>   -1.6331    1.0000 </r>
       <r>   -1.0261    1.0000 </r>
       <r>   -0.8787    1.0000 </r>
       <r>    1.6644    1.0000 </r>
       <r>    1.7875    1.0000 </r>
       <r>    1.9725    1.0000 </r>
       <r>    2.9574    1.0000 </r>
       <r>    3.0839    1.0000 </r>
       <r>    3.1754    1.0000 </r>
       <r>    4.0531    1.0000 </r>
       <r>    4.9312    1.0000 </r>
       <r>    5.3993    1.0000 </r>
       <r>    6.9701    0.0000 </r>
       <r>    8.1740    0.0000 </r>
       <r>    8.3285    0.0000 </r>
       <r>    8.4076    0.0000 </r>
       <r>    8.8443    0.0000 </r>
       <r>    9.1427    0.0000 </r>
       <r>    9.1895    0.0000 </r>
       <r>    9.3073    0.0000 </r>
      </set>
      <set comment="kpoint 37">
       <r>   -5.5826    1.0000 </r>
       <r>   -3.6981    1.0000 </r>
       <r>   -3.1902    1.0000 </r>
       <r>   -2.5763    1.0000 </r>
       <r>   -1.2867    1.0000 </r>
       <r>   -0.8719    1.0000 </r>
       <r>   -0.2970    1.0000 </r>
       <r>    1.7016    1.0000 </r>
       <r>    1.7641    1.0000 </r>
       <r>    2.1760    1.0000 </r>
       <r>    2.7811    1.0000 </r>
       <r>    3.0329    1.0000 </r>
       <r>    3.6278    1.0000 </r>
       <r>    3.7816    1.0000 </r>
       <r>    4.5849    1.0000 </r>
       <r>    4.7564    1.0000 </r>
       <r>    7.6571    0.0000 </r>
       <r>    7.8234    0.0000 </r>
       <r>    7.9117    0.0000 </r>
       <r>    8.8597    0.0000 </r>
       <r>    9.2200    0.0000 </r>
       <r>    9.3219    0.0000 </r>
       <r>    9.4591    0.0000 </r>
       <r>    9.9762    0.0000 </r>
      </set>
      <set comment="kpoint 38">
       <r>   -5.1596    1.0000 </r>
       <r>   -4.3403    1.0000 </r>
       <r>   -3.3520    1.0000 </r>
       <r>   -2.7637    1.0000 </r>
       <r>   -1.1097    1.0000 </r>
       <r>   -0.7283    1.0000 </r>
       <r>    0.4339    1.0000 </r>
       <r>    1.7104    1.0000 </r>
       <r>    1.8055    1.0000 </r>
       <r>    2.0073    1.0000 </r>
       <r>    2.7428    1.0000 </r>
       <r>    2.7779    1.0000 </r>
       <r>    3.8463    1.0000 </r>
       <r>    3.9883    1.0000 </r>
       <r>    4.1848    1.0000 </r>
       <r>    4.2689    1.0000 </r>
       <r>    7.7341    0.0000 </r>
       <r>    7.8876    0.0000 </r>
       <r>    8.6269    0.0000 </r>
       <r>    8.9458    0.0000 </r>
       <r>    9.2393    0.0000 </r>
       <r>    9.6860    0.0000 </r>
       <r>    9.8456    0.0000 </r>
       <r>   10.2586    0.0000 </r>
      </set>
      <set comment="kpoint 39">
       <r>   -4.9158    1.0000 </r>
       <r>   -4.6212    1.0000 </r>
       <r>   -3.4044    1.0000 </r>
       <r>   -2.8570    1.0000 </r>
       <r>   -1.0860    1.0000 </r>
       <r>   -0.5981    1.0000 </r>
       <r>    1.0441    1.0000 </r>
       <r>    1.2879    1.0000 </r>
       <r>    1.6489    1.0000 </r>
       <r>    1.9546    1.0000 </r>
       <r>    3.1183    1.0000 </r>
       <r>    3.2551    1.0000 </r>
       <r>    3.4305    1.0000 </r>
       <r>    3.4443    1.0000 </r>
       <r>    3.9018    1.0000 </r>
       <r>    4.6962    1.0000 </r>
       <r>    7.6512    0.0000 </r>
       <r>    8.3438    0.0000 </r>
       <r>    8.4840    0.0000 </r>
       <r>    9.0137    0.0000 </r>
       <r>    9.1711    0.0000 </r>
       <r>    9.1811    0.0000 </r>
       <r>    9.4923    0.0000 </r>
       <r>   10.2489    0.0000 </r>
      </set>
      <set comment="kpoint 40">
       <r>   -5.3911    1.0000 </r>
       <r>   -3.9858    1.0000 </r>
       <r>   -3.3446    1.0000 </r>
       <r>   -2.8578    1.0000 </r>
       <r>   -1.1254    1.0000 </r>
       <r>   -0.5541    1.0000 </r>
       <r>    0.1701    1.0000 </r>
       <r>    1.5943    1.0000 </r>
       <r>    2.0772    1.0000 </r>
       <r>    2.2469    1.0000 </r>
       <r>    2.5987    1.0000 </r>
       <r>    3.1283    1.0000 </r>
       <r>    3.4963    1.0000 </r>
       <r>    3.5006    1.0000 </r>
       <r>    4.1872    1.0000 </r>
       <r>    5.1148    1.0000 </r>
       <r>    7.3336    0.0000 </r>
       <r>    7.6838    0.0000 </r>
       <r>    8.0052    0.0000 </r>
       <r>    8.3740    0.0000 </r>
       <r>    8.9609    0.0000 </r>
       <r>    9.3970    0.0000 </r>
       <r>    9.7108    0.0000 </r>
       <r>    9.7200    0.0000 </r>
      </set>
      <set comment="kpoint 41">
       <r>   -5.7490    1.0000 </r>
[...]
       <r>   -3.8986    1.0000 </r>
       <r>   -3.5983    1.0000 </r>
       <r>   -0.8854    1.0000 </r>
       <r>   -0.5527    1.0000 </r>
       <r>   -0.3096    1.0000 </r>
       <r>    0.6766    1.0000 </r>
       <r>    1.8695    1.0000 </r>
       <r>    2.5848    1.0000 </r>
       <r>    3.6429    1.0000 </r>
       <r>    3.8035    1.0000 </r>
       <r>    4.1642    1.0000 </r>
       <r>    4.2215    1.0000 </r>
       <r>    4.3943    1.0000 </r>
       <r>    4.6617    1.0000 </r>
       <r>    7.6107    0.0000 </r>
       <r>    7.9447    0.0000 </r>
       <r>    8.7267    0.0000 </r>
       <r>    8.7982    0.0000 </r>
       <r>    8.9645    0.0000 </r>
       <r>    9.1890    0.0000 </r>
       <r>    9.2126    0.0000 </r>
       <r>    9.3534    0.0000 </r>
      </set>
      <set comment="kpoint 183">
       <r>   -4.2977    1.0000 </r>
       <r>   -4.2846    1.0000 </r>
       <r>   -3.8845    1.0000 </r>
       <r>   -3.8737    1.0000 </r>
       <r>   -0.3155    1.0000 </r>
       <r>   -0.3054    1.0000 </r>
       <r>    0.1129    1.0000 </r>
       <r>    0.1240    1.0000 </r>
       <r>    2.2106    1.0000 </r>
       <r>    2.2173    1.0000 </r>
       <r>    3.4761    1.0000 </r>
       <r>    3.4903    1.0000 </r>
       <r>    4.1883    1.0000 </r>
       <r>    4.1902    1.0000 </r>
       <r>    4.3435    1.0000 </r>
       <r>    4.3600    1.0000 </r>
       <r>    7.8597    0.0000 </r>
       <r>    7.8647    0.0000 </r>
       <r>    8.5978    0.0000 </r>
       <r>    8.6077    0.0000 </r>
       <r>    9.0089    0.0000 </r>
       <r>    9.0143    0.0000 </r>
       <r>    9.4666    0.0000 </r>
       <r>    9.4770    0.0000 </r>
      </set>
      <set comment="kpoint 184">
       <r>   -4.5090    1.0000 </r>
       <r>   -3.8332    1.0000 </r>
       <r>   -3.8222    1.0000 </r>
       <r>   -3.7077    1.0000 </r>
       <r>   -1.1312    1.0000 </r>
       <r>   -1.1241    1.0000 </r>
       <r>   -0.2612    1.0000 </r>
       <r>    0.7261    1.0000 </r>
       <r>    1.8010    1.0000 </r>
       <r>    2.5320    1.0000 </r>
       <r>    4.1746    1.0000 </r>
       <r>    4.2688    1.0000 </r>
       <r>    4.2761    1.0000 </r>
       <r>    4.4757    1.0000 </r>
       <r>    4.4827    1.0000 </r>
       <r>    4.7127    1.0000 </r>
       <r>    7.5462    0.0000 </r>
       <r>    7.5490    0.0000 </r>
       <r>    7.9196    0.0000 </r>
       <r>    8.4608    0.0000 </r>
       <r>    9.0306    0.0000 </r>
       <r>    9.0331    0.0000 </r>
       <r>    9.2567    0.0000 </r>
       <r>    9.2574    0.0000 </r>
      </set>
      <set comment="kpoint 185">
       <r>   -4.1017    1.0000 </r>
       <r>   -4.0906    1.0000 </r>
       <r>   -3.9157    1.0000 </r>
       <r>   -3.9043    1.0000 </r>
       <r>   -1.0646    1.0000 </r>
       <r>   -1.0564    1.0000 </r>
       <r>    0.2638    1.0000 </r>
       <r>    0.2753    1.0000 </r>
       <r>    2.0495    1.0000 </r>
       <r>    2.0568    1.0000 </r>
       <r>    4.2709    1.0000 </r>
       <r>    4.2863    1.0000 </r>
       <r>    4.5083    1.0000 </r>
       <r>    4.5109    1.0000 </r>
       <r>    4.5257    1.0000 </r>
       <r>    4.5383    1.0000 </r>
       <r>    7.3568    0.0000 </r>
       <r>    7.3575    0.0000 </r>
       <r>    8.4450    0.0000 </r>
       <r>    8.4583    0.0000 </r>
       <r>    9.0602    0.0000 </r>
       <r>    9.0707    0.0000 </r>
       <r>    9.1629    0.0000 </r>
       <r>    9.1726    0.0000 </r>
      </set>
     </set>
    </set>
   </array>
  </eigenvalues>
  <separator name="orbital magnetization" >
   <v name="MAGDIPOLOUT">      0.00000000      0.00000000      0.00000000</v>
  </separator>
  <dos>
   <i name="efermi">      5.83472581 </i>
   <total>
    <array>
     <dimension dim="1">gridpoints</dimension>
     <dimension dim="2">spin</dimension>
     <field>energy</field>
     <field>total</field>
     <field>integrated</field>
     <set>
      <set comment="spin 1">
       <r>    -7.0043     0.0000     0.0000 </r>
       <r>    -6.9420     0.0000     0.0000 </r>
       <r>    -6.8797     0.0000     0.0000 </r>
       <r>    -6.8174     0.0000     0.0000 </r>
       <r>    -6.7551     0.0000     0.0000 </r>
       <r>    -6.6928     0.0000     0.0000 </r>
       <r>    -6.6306     0.0000     0.0000 </r>
       <r>    -6.5683     0.0000     0.0000 </r>
       <r>    -6.5060     0.0000     0.0000 </r>
       <r>    -6.4437     0.0000     0.0000 </r>
       <r>    -6.3814     0.0000     0.0000 </r>
       <r>    -6.3191     0.0000     0.0000 </r>
       <r>    -6.2568     0.0000     0.0000 </r>
       <r>    -6.1945     0.0000     0.0000 </r>
       <r>    -6.1323     0.0495     0.0031 </r>
       <r>    -6.0700     0.4794     0.0330 </r>
       <r>    -6.0077     0.2162     0.0465 </r>
       <r>    -5.9454     0.6550     0.0873 </r>
       <r>    -5.8831     0.6232     0.1261 </r>
       <r>    -5.8208     1.0009     0.1885 </r>
       <r>    -5.7585     0.5033     0.2198 </r>
       <r>    -5.6962     1.1434     0.2911 </r>
       <r>    -5.6340     1.2355     0.3680 </r>
       <r>    -5.5717     0.7640     0.4156 </r>
       <r>    -5.5094     1.1028     0.4843 </r>
       <r>    -5.4471     1.4260     0.5731 </r>
       <r>    -5.3848     1.3351     0.6563 </r>
       <r>    -5.3225     0.7834     0.7051 </r>
       <r>    -5.2602     1.4752     0.7970 </r>
       <r>    -5.1979     1.6832     0.9018 </r>
       <r>    -5.1357     1.2903     0.9822 </r>
       <r>    -5.0734     1.8879     1.0998 </r>
       <r>    -5.0111     1.4627     1.1910 </r>
       <r>    -4.9488     1.7890     1.3025 </r>
       <r>    -4.8865     1.0183     1.3659 </r>
       <r>    -4.8242     1.3132     1.4477 </r>
       <r>    -4.7619     2.6221     1.6111 </r>
       <r>    -4.6996     1.7141     1.7179 </r>
       <r>    -4.6374     2.1962     1.8547 </r>
       <r>    -4.5751     2.2224     1.9932 </r>
       <r>    -4.5128     1.6958     2.0989 </r>
       <r>    -4.4505     2.1125     2.2305 </r>
       <r>    -4.3882     2.1260     2.3630 </r>
       <r>    -4.3259     2.2693     2.5044 </r>
       <r>    -4.2636     1.2935     2.5850 </r>
       <r>    -4.2013     2.8204     2.7607 </r>
       <r>    -4.1391     2.6722     2.9272 </r>
       <r>    -4.0768     2.8592     3.1053 </r>
       <r>    -4.0145     3.1096     3.2990 </r>
       <r>    -3.9522     3.1720     3.4966 </r>
       <r>    -3.8899     2.4086     3.6466 </r>
       <r>    -3.8276     3.4002     3.8584 </r>
       <r>    -3.7653     3.0646     4.0493 </r>
       <r>    -3.7030     2.8720     4.2282 </r>
       <r>    -3.6408     3.6407     4.4550 </r>
       <r>    -3.5785     4.3927     4.7287 </r>
       <r>    -3.5162     3.5052     4.9471 </r>
       <r>    -3.4539     1.8126     5.0601 </r>
       <r>    -3.3916     3.0968     5.2530 </r>
       <r>    -3.3293     3.1582     5.4498 </r>
       <r>    -3.2670     4.6389     5.7388 </r>
       <r>    -3.2047     3.0432     5.9284 </r>
       <r>    -3.1425     2.1204     6.0606 </r>
       <r>    -3.0802     2.0623     6.1890 </r>
       <r>    -3.0179     2.3849     6.3376 </r>
       <r>    -2.9556     0.7971     6.3873 </r>
       <r>    -2.8933     2.2810     6.5293 </r>
       <r>    -2.8310     1.9775     6.6526 </r>
       <r>    -2.7687     3.6725     6.8814 </r>
       <r>    -2.7064     3.4422     7.0959 </r>
       <r>    -2.6442     2.0996     7.2267 </r>
       <r>    -2.5819     2.1828     7.3627 </r>
       <r>    -2.5196     1.4795     7.4549 </r>
       <r>    -2.4573     1.5682     7.5526 </r>
       <r>    -2.3950     0.7605     7.6000 </r>
       <r>    -2.3327     1.2618     7.6786 </r>
       <r>    -2.2704     0.7380     7.7246 </r>
       <r>    -2.2081     0.6076     7.7624 </r>
       <r>    -2.1459     0.8393     7.8147 </r>
       <r>    -2.0836     0.7583     7.8619 </r>
       <r>    -2.0213     1.3315     7.9449 </r>
       <r>    -1.9590     1.3404     8.0284 </r>
       <r>    -1.8967     0.7524     8.0752 </r>
       <r>    -1.8344     0.7874     8.1243 </r>
       <r>    -1.7721     0.7654     8.1719 </r>
       <r>    -1.7098     0.4942     8.2027 </r>
       <r>    -1.6476     0.6806     8.2451 </r>
       <r>    -1.5853     0.7821     8.2939 </r>
       <r>    -1.5230     0.6824     8.3364 </r>
       <r>    -1.4607     1.1260     8.4066 </r>
       <r>    -1.3984     0.6852     8.4493 </r>
       <r>    -1.3361     0.7666     8.4971 </r>
       <r>    -1.2738     1.9899     8.6210 </r>
       <r>    -1.2115     2.6039     8.7832 </r>
       <r>    -1.1493     7.5106     9.2511 </r>
       <r>    -1.0870     3.0586     9.4418 </r>
       <r>    -1.0247     5.4449     9.7810 </r>
       <r>    -0.9624     5.9908    10.1543 </r>
       <r>    -0.9001     4.8932    10.4591 </r>
       <r>    -0.8378     4.1795    10.7196 </r>
       <r>    -0.7755     3.4017    10.9315 </r>
       <r>    -0.7132     2.2392    11.0710 </r>
       <r>    -0.6510     3.3652    11.2806 </r>
       <r>    -0.5887     3.4954    11.4984 </r>
       <r>    -0.5264     3.2763    11.7025 </r>
       <r>    -0.4641     2.4183    11.8532 </r>
       <r>    -0.4018     2.4758    12.0074 </r>
       <r>    -0.3395     3.1837    12.2057 </r>
       <r>    -0.2772     2.0267    12.3320 </r>
       <r>    -0.2149     2.8480    12.5094 </r>
       <r>    -0.1527     1.8148    12.6225 </r>
       <r>    -0.0904     1.6116    12.7229 </r>
       <r>    -0.0281     1.8527    12.8383 </r>
       <r>     0.0342     1.4281    12.9273 </r>
       <r>     0.0965     1.6757    13.0317 </r>
       <r>     0.1588     2.3166    13.1761 </r>
       <r>     0.2211     1.9801    13.2994 </r>
       <r>     0.2834     1.1911    13.3736 </r>
       <r>     0.3456     1.1967    13.4482 </r>
       <r>     0.4079     1.2041    13.5232 </r>
       <r>     0.4702     1.6686    13.6271 </r>
       <r>     0.5325     1.3768    13.7129 </r>
       <r>     0.5948     1.1213    13.7827 </r>
       <r>     0.6571     1.3786    13.8686 </r>
       <r>     0.7194     2.4766    14.0229 </r>
       <r>     0.7817     1.1584    14.0951 </r>
       <r>     0.8439     0.7421    14.1413 </r>
       <r>     0.9062     1.1800    14.2148 </r>
       <r>     0.9685     0.6751    14.2569 </r>
       <r>     1.0308     1.4495    14.3472 </r>
       <r>     1.0931     1.0816    14.4145 </r>
       <r>     1.1554     0.6252    14.4535 </r>
       <r>     1.2177     0.7521    14.5003 </r>
       <r>     1.2800     0.7319    14.5459 </r>
       <r>     1.3422     0.9993    14.6082 </r>
       <r>     1.4045     1.5997    14.7078 </r>
       <r>     1.4668     1.6513    14.8107 </r>
       <r>     1.5291     2.8629    14.9891 </r>
       <r>     1.5914     2.8254    15.1651 </r>
       <r>     1.6537     6.2304    15.5532 </r>
       <r>     1.7160     5.2352    15.8793 </r>
       <r>     1.7783     4.8171    16.1795 </r>
       <r>     1.8405     4.1500    16.4381 </r>
       <r>     1.9028     3.4704    16.6543 </r>
       <r>     1.9651     3.7089    16.8854 </r>
       <r>     2.0274     3.4364    17.0995 </r>
       <r>     2.0897     6.7322    17.5189 </r>
       <r>     2.1520     4.1788    17.7792 </r>
       <r>     2.2143     3.1153    17.9733 </r>
       <r>     2.2766     3.2031    18.1729 </r>
       <r>     2.3388     4.2089    18.4352 </r>
       <r>     2.4011     4.0205    18.6857 </r>
       <r>     2.4634     5.7922    19.0465 </r>
       <r>     2.5257     4.5170    19.3280 </r>
       <r>     2.5880     4.4977    19.6081 </r>
       <r>     2.6503     3.4670    19.8241 </r>
       <r>     2.7126     4.5900    20.1101 </r>
       <r>     2.7749     6.2752    20.5010 </r>
       <r>     2.8371     5.3504    20.8342 </r>
       <r>     2.8994     3.9015    21.0773 </r>
       <r>     2.9617     6.4940    21.4819 </r>
       <r>     3.0240     6.4762    21.8854 </r>
       <r>     3.0863     5.9720    22.2576 </r>
       <r>     3.1486     6.1892    22.6433 </r>
       <r>     3.2109     5.2744    22.9720 </r>
       <r>     3.2732     5.8407    23.3359 </r>
       <r>     3.3354     5.3134    23.6669 </r>
       <r>     3.3977     5.9503    24.0376 </r>
       <r>     3.4600     6.0518    24.4146 </r>
       <r>     3.5223     8.0992    24.9194 </r>
       <r>     3.5846     3.1078    25.1130 </r>
       <r>     3.6469     3.9612    25.3598 </r>
       <r>     3.7092     4.6427    25.6491 </r>
       <r>     3.7715     8.0722    26.1520 </r>
       <r>     3.8337     5.4773    26.4933 </r>
       <r>     3.8960     4.7315    26.7881 </r>
       <r>     3.9583     5.6137    27.1377 </r>
       <r>     4.0206     4.1251    27.3948 </r>
       <r>     4.0829     4.7671    27.6918 </r>
       <r>     4.1452     2.9533    27.8757 </r>
       <r>     4.2075     6.4072    28.2748 </r>
       <r>     4.2698     4.8299    28.5759 </r>
       <r>     4.3320     5.3326    28.9082 </r>
       <r>     4.3943     5.3125    29.2391 </r>
       <r>     4.4566     5.1603    29.5606 </r>
       <r>     4.5189     3.4143    29.7733 </r>
       <r>     4.5812     3.1357    29.9687 </r>
       <r>     4.6435     3.8607    30.2092 </r>
       <r>     4.7058     3.9876    30.4576 </r>
       <r>     4.7681     3.4856    30.6747 </r>
       <r>     4.8303     2.3762    30.8227 </r>
       <r>     4.8926     1.5262    30.9178 </r>
       <r>     4.9549     2.2461    31.0578 </r>
       <r>     5.0172     2.5661    31.2176 </r>
       <r>     5.0795     1.5621    31.3149 </r>
       <r>     5.1418     2.3419    31.4608 </r>
       <r>     5.2041     2.0795    31.5904 </r>
       <r>     5.2664     0.7745    31.6386 </r>
       <r>     5.3286     0.1884    31.6504 </r>
       <r>     5.3909     1.1815    31.7240 </r>
       <r>     5.4532     1.3795    31.8099 </r>
       <r>     5.5155     1.3429    31.8936 </r>
       <r>     5.5778     0.9551    31.9531 </r>
       <r>     5.6401     0.0119    31.9538 </r>
       <r>     5.7024     0.4882    31.9842 </r>
       <r>     5.7647     0.2263    31.9983 </r>
       <r>     5.8269     0.0272    32.0000 </r>
       <r>     5.8892     0.0000    32.0000 </r>
       <r>     5.9515     0.0000    32.0000 </r>
       <r>     6.0138     0.0000    32.0000 </r>
       <r>     6.0761     0.0000    32.0000 </r>
       <r>     6.1384     0.0000    32.0000 </r>
       <r>     6.2007     0.0000    32.0000 </r>
       <r>     6.2630     0.0000    32.0000 </r>
       <r>     6.3252     0.0002    32.0000 </r>
       <r>     6.3875     0.3758    32.0234 </r>
       <r>     6.4498     0.2186    32.0370 </r>
       <r>     6.5121     0.4951    32.0679 </r>
       <r>     6.5744     0.3517    32.0898 </r>
       <r>     6.6367     1.2990    32.1707 </r>
       <r>     6.6990     2.7143    32.3398 </r>
       <r>     6.7613     0.6054    32.3776 </r>
       <r>     6.8235     1.5559    32.4745 </r>
       <r>     6.8858     1.3680    32.5597 </r>
       <r>     6.9481     2.2146    32.6977 </r>
       <r>     7.0104     1.9342    32.8182 </r>
       <r>     7.0727     1.8614    32.9341 </r>
       <r>     7.1350     2.7512    33.1055 </r>
       <r>     7.1973     2.7532    33.2770 </r>
       <r>     7.2596     0.8888    33.3326 </r>
       <r>     7.3218     2.2200    33.4709 </r>
       <r>     7.3841     3.6861    33.7005 </r>
       <r>     7.4464     4.4786    33.9795 </r>
       <r>     7.5087     3.6988    34.2099 </r>
       <r>     7.5710     3.8863    34.4521 </r>
       <r>     7.6333     3.5449    34.6730 </r>
       <r>     7.6956     3.2703    34.8767 </r>
       <r>     7.7579     4.0620    35.1298 </r>
       <r>     7.8201     6.0104    35.5042 </r>
       <r>     7.8824     5.9147    35.8727 </r>
       <r>     7.9447     5.1160    36.1915 </r>
       <r>     8.0070     6.7281    36.6106 </r>
       <r>     8.0693     5.3765    36.9457 </r>
       <r>     8.1316     7.3808    37.4055 </r>
       <r>     8.1939     4.8545    37.7079 </r>
       <r>     8.2562     6.4077    38.1071 </r>
       <r>     8.3184     5.8797    38.4733 </r>
       <r>     8.3807     4.7031    38.7664 </r>
       <r>     8.4430     6.6003    39.1776 </r>
       <r>     8.5053     4.6897    39.4698 </r>
       <r>     8.5676     5.4770    39.8110 </r>
       <r>     8.6299     4.5452    40.0942 </r>
       <r>     8.6922     3.5575    40.3158 </r>
       <r>     8.7545     4.4603    40.5936 </r>
       <r>     8.8167     4.7456    40.8894 </r>
       <r>     8.8790     5.0451    41.2037 </r>
       <r>     8.9413     4.0386    41.4554 </r>
       <r>     9.0036     7.6473    41.9317 </r>
       <r>     9.0659     8.1442    42.4391 </r>
       <r>     9.1282     7.1420    42.8841 </r>
       <r>     9.1905     7.6404    43.3603 </r>
       <r>     9.2528     8.1429    43.8677 </r>
       <r>     9.3150     7.2952    44.3222 </r>
       <r>     9.3773     5.1896    44.6455 </r>
       <r>     9.4396     4.6183    44.9332 </r>
       <r>     9.5019     6.5611    45.3420 </r>
       <r>     9.5642     6.8606    45.7694 </r>
       <r>     9.6265     6.8816    46.1981 </r>
       <r>     9.6888     3.9912    46.4468 </r>
       <r>     9.7511     3.4041    46.6589 </r>
       <r>     9.8133     3.8479    46.8986 </r>
       <r>     9.8756     2.9375    47.0816 </r>
       <r>     9.9379     2.9426    47.2650 </r>
       <r>    10.0002     2.1883    47.4013 </r>
       <r>    10.0625     1.4985    47.4946 </r>
       <r>    10.1248     1.2349    47.5716 </r>
       <r>    10.1871     1.0544    47.6373 </r>
       <r>    10.2494     0.9300    47.6952 </r>
       <r>    10.3116     1.4246    47.7840 </r>
       <r>    10.3739     0.3804    47.8077 </r>
       <r>    10.4362     1.0548    47.8734 </r>
       <r>    10.4985     0.7188    47.9181 </r>
       <r>    10.5608     0.5238    47.9508 </r>
       <r>    10.6231     0.5909    47.9877 </r>
       <r>    10.6854     0.0000    47.9877 </r>
       <r>    10.7477     0.0000    47.9877 </r>
       <r>    10.8099     0.0001    47.9877 </r>
       <r>    10.8722     0.1981    48.0000 </r>
       <r>    10.9345     0.0000    48.0000 </r>
       <r>    10.9968     0.0000    48.0000 </r>
       <r>    11.0591     0.0000    48.0000 </r>
       <r>    11.1214     0.0000    48.0000 </r>
       <r>    11.1837     0.0000    48.0000 </r>
       <r>    11.2459     0.0000    48.0000 </r>
       <r>    11.3082     0.0000    48.0000 </r>
       <r>    11.3705     0.0000    48.0000 </r>
       <r>    11.4328     0.0000    48.0000 </r>
       <r>    11.4951     0.0000    48.0000 </r>
       <r>    11.5574     0.0000    48.0000 </r>
       <r>    11.6197     0.0000    48.0000 </r>
       <r>    11.6820     0.0000    48.0000 </r>
      </set>
     </set>
    </array>
   </total>
  </dos>
 </calculation>
 <structure name="finalpos" >
  <crystal>
   <varray name="basis" >
    <v>      -0.00000000       0.00000000       5.44370237 </v>
    <v>      -5.44370237       0.00000000       0.00000000 </v>
    <v>      -2.72185119      -5.44370237       2.72185119 </v>
   </varray>
   <i name="volume">    161.31810740 </i>
   <varray name="rec_basis" >
    <v>       0.00000000       0.09184925       0.18369851 </v>
    <v>      -0.18369851       0.09184925      -0.00000000 </v>
    <v>       0.00000000      -0.18369851       0.00000000 </v>
   </varray>
  </crystal>
  <varray name="positions" >
   <v>       0.00000000       0.00000000       0.00149989 </v>
   <v>       0.75000000       0.25000000       0.50000000 </v>
   <v>       0.50000000       0.50000000       0.00000000 </v>
   <v>       0.25000000       0.75000000       0.50000000 </v>
   <v>       0.37500000       0.87500000       0.75000000 </v>
   <v>       0.12500000       0.12500000       0.25000000 </v>
   <v>       0.87500000       0.37500000       0.75000000 </v>
   <v>       0.62500000       0.62500000       0.25000000 </v>
  </varray>
 </structure>
</modeling>
