<?xml version="1.0" encoding="ISO-8859-1"?>
<modeling>
 <generator>
  <i name="program" type="string">vasp </i>
  <i name="version" type="string">6.4.3  </i>
  <i name="subversion" type="string">19Mar24 (build Jun 20 2024 15:56:09) complex                          parallel </i>
  <i name="platform" type="string">LinuxNV_CrayMPICH </i>
  <i name="date" type="string">2025 01 07 </i>
  <i name="time" type="string">18:38:37 </i>
 </generator>
 <incar>
  <i type="string" name="PREC">Accurate</i>
  <i type="int" name="IBRION">    -1</i>
  <i name="EDIFF">      0.00000001</i>
  <i type="int" name="NSW">     0</i>
  <i name="ENCUT">    500.00000000</i>
  <i type="logical" name="LREAL"> F  </i>
  <i type="int" name="ISMEAR">     0</i>
  <i name="SIGMA">      0.01000000</i>
  <i type="logical" name="LWAVE"> F  </i>
  <i type="logical" name="LCHARG"> F  </i>
 </incar>
 <primitive_cell>
  <structure name="primitive_cell" >
   <crystal>
    <varray name="basis" >
     <v>       8.28739668       0.00000000       0.00000000 </v>
     <v>      -4.14369834       8.28739668       0.00000000 </v>
     <v>       0.00000000       0.00000000       4.14369834 </v>
    </varray>
    <i name="volume">    284.59311253 </i>
    <varray name="rec_basis" >
     <v>       0.12066515       0.06033258      -0.00000000 </v>
     <v>       0.00000000       0.12066515       0.00000000 </v>
     <v>      -0.00000000      -0.00000000       0.24133031 </v>
    </varray>
   </crystal>
   <varray name="positions" >
    <v>       0.00000000       0.00000000       0.00000000 </v>
    <v>       0.50000000       0.00000000       1.00000000 </v>
    <v>       0.25000000       0.50000000       0.00000000 </v>
    <v>       0.75000000       0.50000000       0.00000000 </v>
    <v>       0.37500000       0.25098523       0.50098523 </v>
    <v>       0.87500000       0.25000000       0.50000000 </v>
    <v>       0.62500000       0.75000000       0.50000000 </v>
    <v>       0.12500000       0.75000000       0.50000000 </v>
   </varray>
  </structure>
  <varray name="primitive_index" >
   <v type="int" >        1 </v>
   <v type="int" >        2 </v>
   <v type="int" >        3 </v>
   <v type="int" >        4 </v>
   <v type="int" >        5 </v>
   <v type="int" >        6 </v>
   <v type="int" >        7 </v>
   <v type="int" >        8 </v>
  </varray>
 </primitive_cell>
 <kpoints>
  <generation param="Gamma">
   <v type="int" name="divisions">       6        5       10 </v>
   <v name="usershift">      0.00000000       0.00000000       0.00000000 </v>
   <v name="genvec1">      0.16666667      -0.00000000       0.00000000 </v>
   <v name="genvec2">      0.00000000       0.20000000       0.00000000 </v>
   <v name="genvec3">     -0.00000000       0.00000000       0.10000000 </v>
   <v name="shift">      0.00000000       0.00000000       0.00000000 </v>
  </generation>
  <varray name="kpointlist" >
   <v>       0.00000000       0.00000000       0.00000000 </v>
   <v>       0.16666667       0.00000000       0.00000000 </v>
   <v>       0.33333333       0.00000000       0.00000000 </v>
   <v>       0.50000000       0.00000000       0.00000000 </v>
   <v>       0.00000000       0.20000000       0.00000000 </v>
   <v>       0.16666667       0.20000000       0.00000000 </v>
   <v>       0.33333333       0.20000000       0.00000000 </v>
   <v>       0.50000000       0.20000000       0.00000000 </v>
   <v>      -0.33333333       0.20000000       0.00000000 </v>
   <v>      -0.16666667       0.20000000       0.00000000 </v>
   <v>       0.00000000       0.40000000       0.00000000 </v>
   <v>       0.16666667       0.40000000       0.00000000 </v>
   <v>       0.33333333       0.40000000       0.00000000 </v>
   <v>       0.50000000       0.40000000       0.00000000 </v>
   <v>      -0.33333333       0.40000000       0.00000000 </v>
   <v>      -0.16666667       0.40000000       0.00000000 </v>
   <v>       0.00000000       0.00000000       0.10000000 </v>
   <v>       0.16666667       0.00000000       0.10000000 </v>
   <v>       0.33333333       0.00000000       0.10000000 </v>
   <v>       0.50000000       0.00000000       0.10000000 </v>
   <v>      -0.33333333       0.00000000       0.10000000 </v>
   <v>      -0.16666667       0.00000000       0.10000000 </v>
   <v>       0.00000000       0.20000000       0.10000000 </v>
   <v>       0.16666667       0.20000000       0.10000000 </v>
   <v>       0.33333333       0.20000000       0.10000000 </v>
   <v>       0.50000000       0.20000000       0.10000000 </v>
   <v>      -0.33333333       0.20000000       0.10000000 </v>
   <v>      -0.16666667       0.20000000       0.10000000 </v>
   <v>       0.00000000       0.40000000       0.10000000 </v>
   <v>       0.16666667       0.40000000       0.10000000 </v>
   <v>       0.33333333       0.40000000       0.10000000 </v>
   <v>       0.50000000       0.40000000       0.10000000 </v>
   <v>      -0.33333333       0.40000000       0.10000000 </v>
   <v>      -0.16666667       0.40000000       0.10000000 </v>
   <v>       0.00000000      -0.40000000       0.10000000 </v>
   <v>       0.16666667      -0.40000000       0.10000000 </v>
   <v>       0.33333333      -0.40000000       0.10000000 </v>
   <v>       0.50000000      -0.40000000       0.10000000 </v>
   <v>      -0.33333333      -0.40000000       0.10000000 </v>
   <v>      -0.16666667      -0.40000000       0.10000000 </v>
   <v>       0.00000000      -0.20000000       0.10000000 </v>
   <v>       0.16666667      -0.20000000       0.10000000 </v>
   <v>       0.33333333      -0.20000000       0.10000000 </v>
   <v>       0.50000000      -0.20000000       0.10000000 </v>
   <v>      -0.33333333      -0.20000000       0.10000000 </v>
   <v>      -0.16666667      -0.20000000       0.10000000 </v>
   <v>       0.00000000       0.00000000       0.20000000 </v>
   <v>       0.16666667       0.00000000       0.20000000 </v>
   <v>       0.33333333       0.00000000       0.20000000 </v>
   <v>       0.50000000       0.00000000       0.20000000 </v>
   <v>      -0.33333333       0.00000000       0.20000000 </v>
   <v>      -0.16666667       0.00000000       0.20000000 </v>
   <v>       0.00000000       0.20000000       0.20000000 </v>
   <v>       0.16666667       0.20000000       0.20000000 </v>
   <v>       0.33333333       0.20000000       0.20000000 </v>
   <v>       0.50000000       0.20000000       0.20000000 </v>
   <v>      -0.33333333       0.20000000       0.20000000 </v>
   <v>      -0.16666667       0.20000000       0.20000000 </v>
   <v>       0.00000000       0.40000000       0.20000000 </v>
   <v>       0.16666667       0.40000000       0.20000000 </v>
   <v>       0.33333333       0.40000000       0.20000000 </v>
   <v>       0.50000000       0.40000000       0.20000000 </v>
   <v>      -0.33333333       0.40000000       0.20000000 </v>
   <v>      -0.16666667       0.40000000       0.20000000 </v>
   <v>       0.00000000      -0.40000000       0.20000000 </v>
   <v>       0.16666667      -0.40000000       0.20000000 </v>
   <v>       0.33333333      -0.40000000       0.20000000 </v>
   <v>       0.50000000      -0.40000000       0.20000000 </v>
   <v>      -0.33333333      -0.40000000       0.20000000 </v>
   <v>      -0.16666667      -0.40000000       0.20000000 </v>
   <v>       0.00000000      -0.20000000       0.20000000 </v>
   <v>       0.16666667      -0.20000000       0.20000000 </v>
   <v>       0.33333333      -0.20000000       0.20000000 </v>
   <v>       0.50000000      -0.20000000       0.20000000 </v>
   <v>      -0.33333333      -0.20000000       0.20000000 </v>
   <v>      -0.16666667      -0.20000000       0.20000000 </v>
   <v>       0.00000000       0.00000000       0.30000000 </v>
   <v>       0.16666667       0.00000000       0.30000000 </v>
   <v>       0.33333333       0.00000000       0.30000000 </v>
   <v>       0.50000000       0.00000000       0.30000000 </v>
   <v>      -0.33333333       0.00000000       0.30000000 </v>
   <v>      -0.16666667       0.00000000       0.30000000 </v>
   <v>       0.00000000       0.20000000       0.30000000 </v>
   <v>       0.16666667       0.20000000       0.30000000 </v>
   <v>       0.33333333       0.20000000       0.30000000 </v>
   <v>       0.50000000       0.20000000       0.30000000 </v>
   <v>      -0.33333333       0.20000000       0.30000000 </v>
   <v>      -0.16666667       0.20000000       0.30000000 </v>
   <v>       0.00000000       0.40000000       0.30000000 </v>
   <v>       0.16666667       0.40000000       0.30000000 </v>
   <v>       0.33333333       0.40000000       0.30000000 </v>
   <v>       0.50000000       0.40000000       0.30000000 </v>
   <v>      -0.33333333       0.40000000       0.30000000 </v>
   <v>      -0.16666667       0.40000000       0.30000000 </v>
   <v>       0.00000000      -0.40000000       0.30000000 </v>
   <v>       0.16666667      -0.40000000       0.30000000 </v>
   <v>       0.33333333      -0.40000000       0.30000000 </v>
   <v>       0.50000000      -0.40000000       0.30000000 </v>
   <v>      -0.33333333      -0.40000000       0.30000000 </v>
   <v>      -0.16666667      -0.40000000       0.30000000 </v>
   <v>       0.00000000      -0.20000000       0.30000000 </v>
   <v>       0.16666667      -0.20000000       0.30000000 </v>
   <v>       0.33333333      -0.20000000       0.30000000 </v>
   <v>       0.50000000      -0.20000000       0.30000000 </v>
   <v>      -0.33333333      -0.20000000       0.30000000 </v>
   <v>      -0.16666667      -0.20000000       0.30000000 </v>
   <v>       0.00000000       0.00000000       0.40000000 </v>
   <v>       0.16666667       0.00000000       0.40000000 </v>
   <v>       0.33333333       0.00000000       0.40000000 </v>
   <v>       0.50000000       0.00000000       0.40000000 </v>
   <v>      -0.33333333       0.00000000       0.40000000 </v>
   <v>      -0.16666667       0.00000000       0.40000000 </v>
   <v>       0.00000000       0.20000000       0.40000000 </v>
   <v>       0.16666667       0.20000000       0.40000000 </v>
   <v>       0.33333333       0.20000000       0.40000000 </v>
   <v>       0.50000000       0.20000000       0.40000000 </v>
   <v>      -0.33333333       0.20000000       0.40000000 </v>
   <v>      -0.16666667       0.20000000       0.40000000 </v>
   <v>       0.00000000       0.40000000       0.40000000 </v>
   <v>       0.16666667       0.40000000       0.40000000 </v>
   <v>       0.33333333       0.40000000       0.40000000 </v>
   <v>       0.50000000       0.40000000       0.40000000 </v>
   <v>      -0.33333333       0.40000000       0.40000000 </v>
   <v>      -0.16666667       0.40000000       0.40000000 </v>
   <v>       0.00000000      -0.40000000       0.40000000 </v>
   <v>       0.16666667      -0.40000000       0.40000000 </v>
   <v>       0.33333333      -0.40000000       0.40000000 </v>
   <v>       0.50000000      -0.40000000       0.40000000 </v>
   <v>      -0.33333333      -0.40000000       0.40000000 </v>
   <v>      -0.16666667      -0.40000000       0.40000000 </v>
   <v>       0.00000000      -0.20000000       0.40000000 </v>
   <v>       0.16666667      -0.20000000       0.40000000 </v>
   <v>       0.33333333      -0.20000000       0.40000000 </v>
   <v>       0.50000000      -0.20000000       0.40000000 </v>
   <v>      -0.33333333      -0.20000000       0.40000000 </v>
   <v>      -0.16666667      -0.20000000       0.40000000 </v>
   <v>       0.00000000       0.00000000       0.50000000 </v>
   <v>       0.16666667       0.00000000       0.50000000 </v>
   <v>       0.33333333       0.00000000       0.50000000 </v>
   <v>       0.50000000       0.00000000       0.50000000 </v>
   <v>       0.00000000       0.20000000       0.50000000 </v>
   <v>       0.16666667       0.20000000       0.50000000 </v>
   <v>       0.33333333       0.20000000       0.50000000 </v>
   <v>       0.50000000       0.20000000       0.50000000 </v>
   <v>      -0.33333333       0.20000000       0.50000000 </v>
   <v>      -0.16666667       0.20000000       0.50000000 </v>
   <v>       0.00000000       0.40000000       0.50000000 </v>
   <v>       0.16666667       0.40000000       0.50000000 </v>
   <v>       0.33333333       0.40000000       0.50000000 </v>
   <v>       0.50000000       0.40000000       0.50000000 </v>
   <v>      -0.33333333       0.40000000       0.50000000 </v>
   <v>      -0.16666667       0.40000000       0.50000000 </v>
  </varray>
  <varray name="weights" >
   <v>       0.00333333 </v>
   <v>       0.00666667 </v>
   <v>       0.00666667 </v>
   <v>       0.00333333 </v>
   <v>       0.00666667 </v>
   <v>       0.00666667 </v>
   <v>       0.00666667 </v>
   <v>       0.00666667 </v>
   <v>       0.00666667 </v>
   <v>       0.00666667 </v>
   <v>       0.00666667 </v>
   <v>       0.00666667 </v>
   <v>       0.00666667 </v>
   <v>       0.00666667 </v>
   <v>       0.00666667 </v>
   <v>       0.00666667 </v>
   <v>       0.00666667 </v>
   <v>       0.00666667 </v>
   <v>       0.00666667 </v>
   <v>       0.00666667 </v>
   <v>       0.00666667 </v>
   <v>       0.00666667 </v>
   <v>       0.00666667 </v>
   <v>       0.00666667 </v>
   <v>       0.00666667 </v>
   <v>       0.00666667 </v>
   <v>       0.00666667 </v>
   <v>       0.00666667 </v>
   <v>       0.00666667 </v>
   <v>       0.00666667 </v>
   <v>       0.00666667 </v>
   <v>       0.00666667 </v>
   <v>       0.00666667 </v>
   <v>       0.00666667 </v>
   <v>       0.00666667 </v>
   <v>       0.00666667 </v>
   <v>       0.00666667 </v>
   <v>       0.00666667 </v>
   <v>       0.00666667 </v>
   <v>       0.00666667 </v>
   <v>       0.00666667 </v>
   <v>       0.00666667 </v>
   <v>       0.00666667 </v>
   <v>       0.00666667 </v>
   <v>       0.00666667 </v>
   <v>       0.00666667 </v>
   <v>       0.00666667 </v>
   <v>       0.00666667 </v>
   <v>       0.00666667 </v>
   <v>       0.00666667 </v>
   <v>       0.00666667 </v>
   <v>       0.00666667 </v>
   <v>       0.00666667 </v>
   <v>       0.00666667 </v>
   <v>       0.00666667 </v>
   <v>       0.00666667 </v>
   <v>       0.00666667 </v>
   <v>       0.00666667 </v>
   <v>       0.00666667 </v>
   <v>       0.00666667 </v>
   <v>       0.00666667 </v>
   <v>       0.00666667 </v>
   <v>       0.00666667 </v>
   <v>       0.00666667 </v>
   <v>       0.00666667 </v>
   <v>       0.00666667 </v>
   <v>       0.00666667 </v>
   <v>       0.00666667 </v>
   <v>       0.00666667 </v>
   <v>       0.00666667 </v>
   <v>       0.00666667 </v>
   <v>       0.00666667 </v>
   <v>       0.00666667 </v>
   <v>       0.00666667 </v>
   <v>       0.00666667 </v>
   <v>       0.00666667 </v>
   <v>       0.00666667 </v>
   <v>       0.00666667 </v>
   <v>       0.00666667 </v>
   <v>       0.00666667 </v>
   <v>       0.00666667 </v>
   <v>       0.00666667 </v>
   <v>       0.00666667 </v>
   <v>       0.00666667 </v>
   <v>       0.00666667 </v>
   <v>       0.00666667 </v>
   <v>       0.00666667 </v>
   <v>       0.00666667 </v>
   <v>       0.00666667 </v>
   <v>       0.00666667 </v>
   <v>       0.00666667 </v>
   <v>       0.00666667 </v>
   <v>       0.00666667 </v>
   <v>       0.00666667 </v>
   <v>       0.00666667 </v>
   <v>       0.00666667 </v>
   <v>       0.00666667 </v>
   <v>       0.00666667 </v>
   <v>       0.00666667 </v>
   <v>       0.00666667 </v>
   <v>       0.00666667 </v>
   <v>       0.00666667 </v>
   <v>       0.00666667 </v>
   <v>       0.00666667 </v>
   <v>       0.00666667 </v>
   <v>       0.00666667 </v>
   <v>       0.00666667 </v>
   <v>       0.00666667 </v>
   <v>       0.00666667 </v>
   <v>       0.00666667 </v>
   <v>       0.00666667 </v>
   <v>       0.00666667 </v>
   <v>       0.00666667 </v>
   <v>       0.00666667 </v>
   <v>       0.00666667 </v>
   <v>       0.00666667 </v>
   <v>       0.00666667 </v>
   <v>       0.00666667 </v>
   <v>       0.00666667 </v>
   <v>       0.00666667 </v>
   <v>       0.00666667 </v>
   <v>       0.00666667 </v>
   <v>       0.00666667 </v>
   <v>       0.00666667 </v>
   <v>       0.00666667 </v>
   <v>       0.00666667 </v>
   <v>       0.00666667 </v>
   <v>       0.00666667 </v>
   <v>       0.00666667 </v>
   <v>       0.00666667 </v>
   <v>       0.00666667 </v>
   <v>       0.00666667 </v>
   <v>       0.00666667 </v>
   <v>       0.00666667 </v>
   <v>       0.00666667 </v>
   <v>       0.00666667 </v>
   <v>       0.00333333 </v>
   <v>       0.00666667 </v>
   <v>       0.00666667 </v>
   <v>       0.00333333 </v>
   <v>       0.00666667 </v>
   <v>       0.00666667 </v>
   <v>       0.00666667 </v>
   <v>       0.00666667 </v>
   <v>       0.00666667 </v>
   <v>       0.00666667 </v>
   <v>       0.00666667 </v>
   <v>       0.00666667 </v>
   <v>       0.00666667 </v>
   <v>       0.00666667 </v>
   <v>       0.00666667 </v>
   <v>       0.00666667 </v>
  </varray>
 </kpoints>
 <parameters>
  <separator name="general" >
   <i type="string" name="SYSTEM">unknown system</i>
   <i type="logical" name="LCOMPAT"> F  </i>
  </separator>
  <separator name="electronic" >
   <i type="string" name="PREC">accura</i>
   <i name="ENMAX">    500.00000000</i>
   <i name="ENAUG">    407.93300000</i>
   <i name="EDIFF">      0.00000001</i>
   <i type="int" name="IALGO">    38</i>
   <i type="int" name="IWAVPR">    10</i>
   <i type="int" name="NBANDS">    40</i>
   <i type="int" name="NBANDSLOW">    -1</i>
   <i type="int" name="NBANDSHIGH">    -1</i>
   <i name="NELECT">     64.00000000</i>
   <i type="int" name="TURBO">     0</i>
   <i type="int" name="IRESTART">     0</i>
   <i type="int" name="NREBOOT">     0</i>
   <i type="int" name="NMIN">     0</i>
   <i name="EREF">      0.00000000</i>
   <separator name="electronic smearing" >
    <i type="int" name="ISMEAR">     0</i>
    <i name="SIGMA">      0.01000000</i>
    <i name="KSPACING">      0.50000000</i>
    <i type="logical" name="KGAMMA"> T  </i>
    <i type="logical" name="KBLOWUP"> F  </i>
   </separator>
   <separator name="electronic projectors" >
    <i type="logical" name="LREAL"> F  </i>
    <v name="ROPT">      0.00000000      0.00000000</v>
    <i type="int" name="LMAXPAW">  -100</i>
    <i type="int" name="LMAXMIX">     2</i>
    <i type="logical" name="NLSPLINE"> F  </i>
   </separator>
   <separator name="electronic startup" >
    <i type="int" name="ISTART">     0</i>
    <i type="int" name="ICHARG">     2</i>
    <i type="int" name="INIWAV">     1</i>
   </separator>
   <separator name="electronic spin" >
    <i type="int" name="ISPIN">     1</i>
    <i type="logical" name="LNONCOLLINEAR"> F  </i>
    <v name="MAGMOM">      1.00000000      1.00000000      1.00000000      1.00000000      1.00000000      1.00000000      1.00000000      1.00000000</v>
    <i name="NUPDOWN">     -1.00000000</i>
    <i type="logical" name="LSORBIT"> F  </i>
    <v name="SAXIS">      0.00000000      0.00000000      1.00000000</v>
    <i type="logical" name="LSPIRAL"> F  </i>
    <v name="QSPIRAL">      0.00000000      0.00000000      0.00000000</v>
    <i type="logical" name="LZEROZ"> F  </i>
   </separator>
   <separator name="electronic exchange-correlation" >
    <i type="logical" name="LASPH"> F  </i>
   </separator>
   <separator name="electronic convergence" >
    <i type="int" name="NELM">    60</i>
    <i type="int" name="NELMDL">    -5</i>
    <i type="int" name="NELMIN">     2</i>
    <i name="ENINI">    500.00000000</i>
    <separator name="electronic convergence detail" >
     <i type="logical" name="LDIAG"> T  </i>
     <i type="logical" name="LSUBROT"> F  </i>
     <i name="WEIMIN">      0.00000000</i>
     <i name="EBREAK">      0.00000000</i>
     <i name="DEPER">      0.30000000</i>
     <i type="int" name="NRMM">     4</i>
     <i name="TIME">      0.40000000</i>
    </separator>
   </separator>
   <separator name="electronic mixer" >
    <i name="AMIX">      0.40000000</i>
    <i name="BMIX">      1.00000000</i>
    <i name="AMIN">      0.10000000</i>
    <i name="AMIX_MAG">      1.60000000</i>
    <i name="BMIX_MAG">      1.00000000</i>
    <separator name="electronic mixer details" >
     <i type="int" name="IMIX">     4</i>
     <i type="logical" name="MIXFIRST"> F  </i>
     <i type="int" name="MAXMIX">   -45</i>
     <i name="WC">    100.00000000</i>
     <i type="int" name="INIMIX">     1</i>
     <i type="int" name="MIXPRE">     1</i>
     <i type="int" name="MREMOVE">     5</i>
    </separator>
   </separator>
   <separator name="electronic dipolcorrection" >
    <i type="logical" name="LDIPOL"> F  </i>
    <i type="logical" name="LMONO"> F  </i>
    <i type="int" name="IDIPOL">     0</i>
    <i name="EPSILON">      1.00000000</i>
    <v name="DIPOL">   -100.00000000   -100.00000000   -100.00000000</v>
    <i name="EFIELD">      0.00000000</i>
    <i type="logical" name="LVACPOTAV"> F  </i>
   </separator>
  </separator>
  <separator name="grids" >
   <i type="int" name="NGX">    60</i>
   <i type="int" name="NGY">    70</i>
   <i type="int" name="NGZ">    30</i>
   <i type="int" name="NGXF">   120</i>
   <i type="int" name="NGYF">   140</i>
   <i type="int" name="NGZF">    60</i>
   <i type="logical" name="ADDGRID"> F  </i>
  </separator>
  <separator name="ionic" >
   <i type="int" name="NSW">     0</i>
   <i type="int" name="IBRION">    -1</i>
   <i type="int" name="MDALGO">     0</i>
   <i type="int" name="ISIF">     2</i>
   <i name="PSTRESS">      0.00000000</i>
   <i name="EDIFFG">      0.00000010</i>
   <i type="int" name="NFREE">     0</i>
   <i name="POTIM">      0.50000000</i>
   <i name="SMASS">     -3.00000000</i>
   <i name="SCALEE">      1.00000000</i>
  </separator>
  <separator name="ionic md" >
   <i name="TEBEG">      0.00010000</i>
   <i name="TEEND">      0.00010000</i>
   <i type="int" name="NBLOCK">     1</i>
   <i type="int" name="KBLOCK">     1</i>
   <i type="int" name="NPACO">   256</i>
   <i name="APACO">     10.00000000</i>
  </separator>
  <separator name="symmetry" >
   <i type="int" name="ISYM">     2</i>
   <i name="SYMPREC">      0.00001000</i>
  </separator>
  <separator name="dos" >
   <i type="int" name="LORBIT">     0</i>
   <v name="RWIGS">     -1.00000000     -1.00000000</v>
   <i type="int" name="NEDOS">   301</i>
   <i name="EMIN">     10.00000000</i>
   <i name="EMAX">    -10.00000000</i>
   <i name="EFERMI">      0.00000000</i>
  </separator>
  <separator name="writing" >
   <i type="int" name="NWRITE">     2</i>
   <i type="logical" name="LWAVE"> F  </i>
   <i type="logical" name="LDOWNSAMPLE"> F  </i>
   <i type="logical" name="LCHARG"> F  </i>
   <i type="logical" name="LPARD"> F  </i>
   <i type="logical" name="LVTOT"> F  </i>
   <i type="logical" name="LVHAR"> F  </i>
   <i type="logical" name="LELF"> F  </i>
   <i type="logical" name="LOPTICS"> F  </i>
   <v name="STM">      0.00000000      0.00000000      0.00000000      0.00000000      0.00000000      0.00000000      0.00000000</v>
  </separator>
  <separator name="performance" >
   <i type="int" name="NPAR">     8</i>
   <i type="int" name="NSIM">     4</i>
   <i type="int" name="NBLK">    -1</i>
   <i type="logical" name="LPLANE"> T  </i>
   <i type="logical" name="LSCALAPACK"> T  </i>
   <i type="logical" name="LSCAAWARE"> F  </i>
   <i type="logical" name="LSCALU"> F  </i>
   <i type="logical" name="LASYNC"> F  </i>
   <i type="logical" name="LORBITALREAL"> F  </i>
  </separator>
  <separator name="miscellaneous" >
   <i type="int" name="IDIOT">     3</i>
   <i type="int" name="PHON_NSTRUCT">    -1</i>
   <i type="logical" name="LMUSIC"> F  </i>
   <v name="POMASS">    132.90000000     35.45300000</v>
   <v name="DARWINR">      0.00000000      0.00000000</v>
   <v name="DARWINV">      1.00000000      1.00000000</v>
   <i type="logical" name="LCORR"> T  </i>
  </separator>
  <i type="logical" name="GGA_COMPAT"> T  </i>
  <i type="logical" name="LBERRY"> F  </i>
  <i type="int" name="ICORELEVEL">     0</i>
  <i type="logical" name="LDAU"> F  </i>
  <i type="int" name="I_CONSTRAINED_M">     0</i>
  <separator name="electronic exchange-correlation" >
   <i type="string" name="GGA    ">PE</i>
   <i type="string" name="XC_C">1</i>
   <i type="int" name="VOSKOWN">     0</i>
   <i type="logical" name="LHFCALC"> F  </i>
   <i type="string" name="PRECFOCK"></i>
   <i type="logical" name="LSYMGRAD"> F  </i>
   <i type="logical" name="LHFONE"> F  </i>
   <i type="logical" name="LRHFCALC"> F  </i>
   <i type="logical" name="LTHOMAS"> F  </i>
   <i type="logical" name="LMODELHF"> F  </i>
   <i type="logical" name="LFOCKACE"> F  </i>
   <i name="ENCUT4O">     -1.00000000</i>
   <i type="int" name="EXXOEP">     0</i>
   <i type="int" name="FOURORBIT">     0</i>
   <i name="AEXX">      0.00000000</i>
   <i name="HFALPHA">      0.00000000</i>
   <i name="MCALPHA">      0.00000000</i>
   <i name="ALDAX">      1.00000000</i>
   <i name="AGGAX">      1.00000000</i>
   <i name="AMGGAX">      1.00000000</i>
   <i name="ALDAC">      1.00000000</i>
   <i name="AGGAC">      1.00000000</i>
   <i name="AMGGAC">      1.00000000</i>
   <i type="int" name="NKREDX">     1</i>
   <i type="int" name="NKREDY">     1</i>
   <i type="int" name="NKREDZ">     1</i>
   <i type="logical" name="SHIFTRED"> F  </i>
   <i type="logical" name="ODDONLY"> F  </i>
   <i type="logical" name="EVENONLY"> F  </i>
   <i type="int" name="LMAXFOCK">     0</i>
   <i type="int" name="NMAXFOCKAE">     0</i>
   <i type="logical" name="LFOCKAEDFT"> F  </i>
   <i name="HFSCREEN">      0.00000000</i>
   <i name="HFSCREENC">      0.00000000</i>
   <i type="int" name="NBANDSGWLOW">     0</i>
  </separator>
  <separator name="vdW DFT" >
   <i type="logical" name="LUSE_VDW"> F  </i>
   <i type="int" name="IVDW_NL">    -1</i>
   <i type="logical" name="LSPIN_VDW"> F  </i>
   <i name="ZAB_VDW">     -0.84910000</i>
   <i name="GAMMA_VDW">      1.39626340</i>
   <i name="ALPHA_VDW">      0.00000000</i>
   <i name="PARAM1">      0.12340000</i>
   <i name="PARAM2">      1.00000000</i>
   <i name="BPARAM">      6.30000000</i>
   <i name="CPARAM">      0.00930000</i>
  </separator>
  <separator name="model GW" >
   <i type="int" name="MODEL_GW">     0</i>
   <i name="MODEL_EPS0">     21.34448344</i>
   <i name="MODEL_ALPHA">      1.00000000</i>
  </separator>
  <separator name="linear response parameters" >
   <i type="logical" name="LEPSILON"> F  </i>
   <i type="logical" name="LRPA"> F  </i>
   <i type="logical" name="LNABLA"> F  </i>
   <i type="logical" name="LVEL"> F  </i>
   <i name="CSHIFT">      0.10000000</i>
   <i name="OMEGAMAX">     -1.00000000</i>
   <i name="DEG_THRESHOLD">      0.00200000</i>
   <i name="RTIME">     -0.10000000</i>
   <i name="WPLASMAI">      0.00000000</i>
   <v name="DFIELD">      0.00000000      0.00000000      0.00000000</v>
   <v name="WPLASMA">      0.00000000      0.00000000      0.00000000      0.00000000      0.00000000      0.00000000      0.00000000      0.00000000      0.00000000</v>
  </separator>
  <separator name="orbital magnetization" >
   <i type="logical" name="NUCIND"> F  </i>
   <v name="MAGPOS">      0.00000000      0.00000000      0.00000000</v>
   <i type="logical" name="LNICSALL"> T  </i>
   <i type="logical" name="ORBITALMAG"> F  </i>
   <i type="logical" name="LMAGBLOCH"> F  </i>
   <i type="logical" name="LCHIMAG"> F  </i>
   <i type="logical" name="LGAUGE"> T  </i>
   <i type="int" name="MAGATOM">     0</i>
   <v name="MAGDIPOL">      0.00000000      0.00000000      0.00000000</v>
   <v name="AVECCONST">      0.00000000      0.00000000      0.00000000</v>
  </separator>
  <separator name="response functions" >
   <i type="logical" name="LALL_IN_ONE"> F  </i>
   <i type="int" name="IALL_IN_ONE">    -1</i>
   <i type="int" name="NBANDS_WAVE">    -1</i>
   <i type="logical" name="LFINITE_TEMPERATURE"> F  </i>
   <i type="logical" name="LADDER"> F  </i>
   <i type="logical" name="LRPAFORCE"> F  </i>
   <i type="logical" name="LFXC"> F  </i>
   <i type="logical" name="LHARTREE"> T  </i>
   <i type="int" name="IBSE">     0</i>
   <v type="int" name="KPOINT">    -1     0     0     0</v>
   <i type="logical" name="LTCTC"> F  </i>
   <i type="logical" name="LTCTE"> F  </i>
   <i type="logical" name="LTETE"> F  </i>
   <i type="logical" name="LTRIPLET"> F  </i>
   <i type="logical" name="LFXCEPS"> F  </i>
   <i type="logical" name="LFXHEG"> F  </i>
   <i type="int" name="NATURALO">     2</i>
   <i type="logical" name="LHOLEGF"> F  </i>
   <i type="logical" name="L2ORDER"> F  </i>
   <i type="logical" name="LDMP1"> F  </i>
   <i type="logical" name="LMP2LT"> F  </i>
   <i type="logical" name="LSMP2LT"> F  </i>
   <i type="logical" name="LGWLF"> F  </i>
   <i name="ENCUTGW">     -1.60000002</i>
   <i name="ENCUTGWSOFT">     -1.60000002</i>
   <i name="ENCUTLF">     -1.00000000</i>
   <i type="logical" name="ESF_SPLINES"> F  </i>
   <i name="ESF_CONV">      0.01000000</i>
   <i type="int" name="ESF_NINTER">    15</i>
   <i type="int" name="LMAXMP2">    -1</i>
   <i name="SCISSOR">      0.00000000</i>
   <i type="int" name="NOMEGA">     0</i>
   <i type="int" name="NOMEGAR">     0</i>
   <i type="int" name="NBANDSGW">    -1</i>
   <i type="int" name="NBANDSO">    -1</i>
   <i type="int" name="NBANDSV">    -1</i>
   <i type="int" name="NELMGW">     1</i>
   <i type="int" name="NELMHF">     1</i>
   <i type="int" name="DIM">     3</i>
   <i type="int" name="IESPILON">     4</i>
   <i type="int" name="ANTIRES">     0</i>
   <i name="OMEGAMAX">    -30.00000000</i>
   <i name="OMEGAMIN">    -30.00000000</i>
   <i name="OMEGATL">   -200.00000000</i>
   <i type="int" name="OMEGAGRID">     0</i>
   <i name="CSHIFT">     -0.10000000</i>
   <i type="logical" name="LSELFENERGY"> F  </i>
   <i type="logical" name="LSPECTRAL"> F  </i>
   <i type="logical" name="LSPECTRALGW"> F  </i>
   <i type="logical" name="LSINGLES"> F  </i>
   <i type="logical" name="LFERMIGW"> F  </i>
   <i type="logical" name="ODDONLYGW"> F  </i>
   <i type="logical" name="EVENONLYGW"> F  </i>
   <i type="int" name="NKREDLFX">     1</i>
   <i type="int" name="NKREDLFY">     1</i>
   <i type="int" name="NKREDLFZ">     1</i>
   <i type="int" name="MAXMEM">  2800</i>
   <i type="int" name="TELESCOPE">     0</i>
   <i type="int" name="NTAUPAR">    -1</i>
   <i type="int" name="NOMEGAPAR">    -1</i>
   <i name="DAMP_NEWTON">      0.80000001</i>
   <i name="LAMBDA">      1.00000000</i>
  </separator>
  <separator name="External order field" >
   <i name="OFIELD_KAPPA">      0.00000000</i>
   <v name="OFIELD_K">      0.00000000      0.00000000      0.00000000</v>
   <i name="OFIELD_Q6_NEAR">      0.00000000</i>
   <i name="OFIELD_Q6_FAR">      0.00000000</i>
   <i name="OFIELD_A">      0.00000000</i>
  </separator>
  <separator name="optional k-points parameters" >
   <i type="int" name="KPOINTS_OPT_MODE">     1</i>
   <i type="logical" name="LKPOINTS_OPT"> F  </i>
  </separator>
 </parameters>
 <atominfo>
  <atoms>       8 </atoms>
  <types>       2 </types>
  <array name="atoms" >
   <dimension dim="1">ion</dimension>
   <field type="string">element</field>
   <field type="int">atomtype</field>
   <set>
    <rc><c>Cs</c><c>   1</c></rc>
    <rc><c>Cs</c><c>   1</c></rc>
    <rc><c>Cs</c><c>   1</c></rc>
    <rc><c>Cs</c><c>   1</c></rc>
    <rc><c>Cl</c><c>   2</c></rc>
    <rc><c>Cl</c><c>   2</c></rc>
    <rc><c>Cl</c><c>   2</c></rc>
    <rc><c>Cl</c><c>   2</c></rc>
   </set>
  </array>
  <array name="atomtypes" >
   <dimension dim="1">type</dimension>
   <field type="int">atomspertype</field>
   <field type="string">element</field>
   <field>mass</field>
   <field>valence</field>
   <field type="string">pseudopotential</field>
   <set>
    <rc><c>   4</c><c>Cs</c><c>    132.90000000</c><c>      9.00000000</c><c>  PAW_PBE Cs_sv 25Jan2019               </c></rc>
    <rc><c>   4</c><c>Cl</c><c>     35.45300000</c><c>      7.00000000</c><c>  PAW_PBE Cl 06Sep2000                  </c></rc>
   </set>
  </array>
 </atominfo>
 <structure name="initialpos" >
  <crystal>
   <varray name="basis" >
    <v>       8.28739668       0.00000000       0.00000000 </v>
    <v>      -4.14369834       8.28739668       0.00000000 </v>
    <v>       0.00000000       0.00000000       4.14369834 </v>
   </varray>
   <i name="volume">    284.59311253 </i>
   <varray name="rec_basis" >
    <v>       0.12066515       0.06033258      -0.00000000 </v>
    <v>       0.00000000       0.12066515       0.00000000 </v>
    <v>      -0.00000000      -0.00000000       0.24133031 </v>
   </varray>
  </crystal>
  <varray name="positions" >
   <v>       0.00000000       0.00000000       0.00000000 </v>
   <v>       0.50000000       0.00000000       0.00000000 </v>
   <v>       0.25000000       0.50000000       0.00000000 </v>
   <v>       0.75000000       0.50000000       0.00000000 </v>
   <v>       0.37500000       0.25098523       0.50098523 </v>
   <v>       0.87500000       0.25000000       0.50000000 </v>
   <v>       0.62500000       0.75000000       0.50000000 </v>
   <v>       0.12500000       0.75000000       0.50000000 </v>
  </varray>
 </structure>
 <calculation>
  <scstep>
   <time name="dav">    1.88    1.89</time>
   <time name="total">    1.91    1.91</time>
   <energy>
    <i name="alphaZ">    214.16676563 </i>
    <i name="ewald">  -3265.84776070 </i>
    <i name="hartreedc">   -531.75780376 </i>
    <i name="XCdc">   -120.86789108 </i>
    <i name="pawpsdc">   3246.12869203 </i>
    <i name="pawaedc">  -2972.40719683 </i>
    <i name="eentropy">     -0.00012302 </i>
    <i name="bandstr">     38.00312578 </i>
    <i name="atom">   3861.61514281 </i>
    <i name="e_fr_energy">    469.03295087 </i>
    <i name="e_wo_entrp">    469.03307389 </i>
    <i name="e_0_energy">    469.03301238 </i>
   </energy>
  </scstep>
  <scstep>
   <time name="dav">    2.38    2.39</time>
   <time name="total">    2.38    2.39</time>
   <energy>
    <i name="e_fr_energy">     16.02389358 </i>
    <i name="e_wo_entrp">     16.02389358 </i>
    <i name="e_0_energy">     16.02389358 </i>
   </energy>
  </scstep>
  <scstep>
   <time name="dav">    2.18    2.18</time>
   <time name="total">    2.18    2.18</time>
   <energy>
    <i name="e_fr_energy">    -27.13679272 </i>
    <i name="e_wo_entrp">    -27.13679272 </i>
    <i name="e_0_energy">    -27.13679272 </i>
   </energy>
  </scstep>
  <scstep>
   <time name="dav">    2.16    2.16</time>
   <time name="total">    2.16    2.16</time>
   <energy>
    <i name="e_fr_energy">    -27.79904374 </i>
    <i name="e_wo_entrp">    -27.79904374 </i>
    <i name="e_0_energy">    -27.79904374 </i>
   </energy>
  </scstep>
  <scstep>
   <time name="dav">    2.08    2.08</time>
   <time name="total">    2.19    2.20</time>
   <energy>
    <i name="e_fr_energy">    -27.81209534 </i>
    <i name="e_wo_entrp">    -27.81209534 </i>
    <i name="e_0_energy">    -27.81209534 </i>
   </energy>
  </scstep>
  <scstep>
   <time name="dav">    2.09    2.09</time>
   <time name="total">    2.22    2.23</time>
   <energy>
    <i name="e_fr_energy">    -26.30036136 </i>
    <i name="e_wo_entrp">    -26.30036136 </i>
    <i name="e_0_energy">    -26.30036136 </i>
   </energy>
  </scstep>
  <scstep>
   <time name="dav">    2.34    2.34</time>
   <time name="total">    2.48    2.48</time>
   <energy>
    <i name="e_fr_energy">    -26.12948064 </i>
    <i name="e_wo_entrp">    -26.12948064 </i>
    <i name="e_0_energy">    -26.12948064 </i>
   </energy>
  </scstep>
  <scstep>
   <time name="dav">    2.13    2.13</time>
   <time name="total">    2.27    2.27</time>
   <energy>
    <i name="e_fr_energy">    -26.13386113 </i>
    <i name="e_wo_entrp">    -26.13386113 </i>
    <i name="e_0_energy">    -26.13386113 </i>
   </energy>
  </scstep>
  <scstep>
   <time name="dav">    2.31    2.31</time>
   <time name="total">    2.45    2.46</time>
   <energy>
    <i name="e_fr_energy">    -26.13140779 </i>
    <i name="e_wo_entrp">    -26.13140779 </i>
    <i name="e_0_energy">    -26.13140779 </i>
   </energy>
  </scstep>
  <scstep>
   <time name="dav">    2.14    2.14</time>
   <time name="total">    2.28    2.28</time>
   <energy>
    <i name="e_fr_energy">    -26.13204795 </i>
    <i name="e_wo_entrp">    -26.13204795 </i>
    <i name="e_0_energy">    -26.13204795 </i>
   </energy>
  </scstep>
  <scstep>
   <time name="dav">    2.14    2.14</time>
   <time name="total">    2.27    2.28</time>
   <energy>
    <i name="e_fr_energy">    -26.13223512 </i>
    <i name="e_wo_entrp">    -26.13223512 </i>
    <i name="e_0_energy">    -26.13223512 </i>
   </energy>
  </scstep>
  <scstep>
   <time name="dav">    2.15    2.15</time>
   <time name="total">    2.28    2.29</time>
   <energy>
    <i name="e_fr_energy">    -26.13224359 </i>
    <i name="e_wo_entrp">    -26.13224359 </i>
    <i name="e_0_energy">    -26.13224359 </i>
   </energy>
  </scstep>
  <scstep>
   <time name="dav">    2.32    2.32</time>
   <time name="total">    2.46    2.46</time>
   <energy>
    <i name="e_fr_energy">    -26.13224268 </i>
    <i name="e_wo_entrp">    -26.13224268 </i>
    <i name="e_0_energy">    -26.13224268 </i>
   </energy>
  </scstep>
  <scstep>
   <time name="dav">    1.81    1.81</time>
   <time name="total">    1.94    1.94</time>
   <energy>
    <i name="e_fr_energy">    -26.13224269 </i>
    <i name="e_wo_entrp">    -26.13224269 </i>
    <i name="e_0_energy">    -26.13224269 </i>
   </energy>
  </scstep>
  <scstep>
   <time name="dav">    1.69    1.70</time>
   <time name="total">    1.83    1.83</time>
   <energy>
    <i name="e_fr_energy">    -26.13224268 </i>
    <i name="e_wo_entrp">    -26.13224268 </i>
    <i name="e_0_energy">    -26.13224268 </i>
   </energy>
  </scstep>
  <scstep>
   <time name="dav">    1.70    1.70</time>
   <time name="total">    1.73    1.73</time>
   <energy>
    <i name="alphaZ">    214.16676563 </i>
    <i name="ewald">  -3265.84776070 </i>
    <i name="hartreedc">   -554.75525352 </i>
    <i name="XCdc">   -118.49245159 </i>
    <i name="pawpsdc">   3633.67468063 </i>
    <i name="pawaedc">  -3361.17158032 </i>
    <i name="eentropy">     -0.00000000 </i>
    <i name="bandstr">   -435.32178563 </i>
    <i name="atom">   3861.61514281 </i>
    <i name="e_fr_energy">    -26.13224268 </i>
    <i name="e_wo_entrp">    -26.13224268 </i>
    <i name="e_0_energy">    -26.13224268 </i>
   </energy>
  </scstep>
  <structure>
   <crystal>
    <varray name="basis" >
     <v>       8.28739668       0.00000000       0.00000000 </v>
     <v>      -4.14369834       8.28739668       0.00000000 </v>
     <v>       0.00000000       0.00000000       4.14369834 </v>
    </varray>
    <i name="volume">    284.59311253 </i>
    <varray name="rec_basis" >
     <v>       0.12066515       0.06033258      -0.00000000 </v>
     <v>       0.00000000       0.12066515       0.00000000 </v>
     <v>      -0.00000000      -0.00000000       0.24133031 </v>
    </varray>
   </crystal>
   <varray name="positions" >
    <v>       0.00000000       0.00000000       0.00000000 </v>
    <v>       0.50000000       0.00000000       0.00000000 </v>
    <v>       0.25000000       0.50000000       0.00000000 </v>
    <v>       0.75000000       0.50000000       0.00000000 </v>
    <v>       0.37500000       0.25098523       0.50098523 </v>
    <v>       0.87500000       0.25000000       0.50000000 </v>
    <v>       0.62500000       0.75000000       0.50000000 </v>
    <v>       0.12500000       0.75000000       0.50000000 </v>
   </varray>
  </structure>
  <varray name="forces" >
   <v>       0.00000468       0.00124579       0.00079677 </v>
   <v>      -0.00154966       0.00191920       0.00077684 </v>
   <v>      -0.00166441       0.00203302       0.00084070 </v>
   <v>       0.00003282       0.00126807       0.00081882 </v>
   <v>       0.00603510      -0.01242763      -0.00340649 </v>
   <v>      -0.00264458      -0.00190154      -0.00007335 </v>
   <v>      -0.00009986       0.00394070       0.00011967 </v>
   <v>      -0.00011407       0.00392240       0.00012702 </v>
  </varray>
  <varray name="stress" >
   <v>       7.40897376       0.00001759      -0.00047242 </v>
   <v>       0.00001761       7.41814550       0.00085401 </v>
   <v>      -0.00047239       0.00085400       7.40449503 </v>
  </varray>
  <energy>
   <i name="e_fr_energy">    -26.13224268 </i>
   <i name="e_wo_entrp">    -26.13224268 </i>
   <i name="e_0_energy">    -26.13224268 </i>
  </energy>
  <time name="totalsc">   37.11   37.16</time>
  <eigenvalues>
   <array>
    <dimension dim="1">band</dimension>
    <dimension dim="2">kpoint</dimension>
    <dimension dim="3">spin</dimension>
    <field>eigene</field>
    <field>occ</field>
    <set>
     <set comment="spin 1">
      <set comment="kpoint 1">
       <r>  -19.7965    1.0000 </r>
       <r>  -19.7192    1.0000 </r>
       <r>  -19.6907    1.0000 </r>
       <r>  -19.6824    1.0000 </r>
       <r>  -12.5928    1.0000 </r>
       <r>  -12.5528    1.0000 </r>
       <r>  -12.5321    1.0000 </r>
       <r>  -12.5313    1.0000 </r>
       <r>   -6.9219    1.0000 </r>
       <r>   -6.9133    1.0000 </r>
       <r>   -6.8086    1.0000 </r>
       <r>   -6.6341    1.0000 </r>
       <r>   -6.6278    1.0000 </r>
       <r>   -6.2937    1.0000 </r>
       <r>   -6.2937    1.0000 </r>
       <r>   -6.2935    1.0000 </r>
       <r>   -6.1596    1.0000 </r>
       <r>   -6.1595    1.0000 </r>
       <r>   -6.1224    1.0000 </r>
       <r>   -6.1141    1.0000 </r>
       <r>   -1.5317    1.0000 </r>
       <r>   -1.1513    1.0000 </r>
       <r>   -1.1488    1.0000 </r>
       <r>   -0.7390    1.0000 </r>
       <r>   -0.7360    1.0000 </r>
       <r>   -0.6184    1.0000 </r>
       <r>   -0.6184    1.0000 </r>
       <r>   -0.5339    1.0000 </r>
       <r>   -0.5328    1.0000 </r>
       <r>   -0.3952    1.0000 </r>
       <r>   -0.3952    1.0000 </r>
       <r>   -0.3952    1.0000 </r>
       <r>    4.7979    0.0000 </r>
       <r>    5.0131    0.0000 </r>
       <r>    5.0131    0.0000 </r>
       <r>    6.0043    0.0000 </r>
       <r>    6.0110    0.0000 </r>
       <r>    6.0128    0.0000 </r>
       <r>    6.5202    0.0000 </r>
       <r>    6.5231    0.0000 </r>
      </set>
      <set comment="kpoint 2">
       <r>  -19.7902    1.0000 </r>
       <r>  -19.7162    1.0000 </r>
       <r>  -19.7009    1.0000 </r>
       <r>  -19.6818    1.0000 </r>
       <r>  -12.5842    1.0000 </r>
       <r>  -12.5555    1.0000 </r>
       <r>  -12.5486    1.0000 </r>
       <r>  -12.5194    1.0000 </r>
       <r>   -6.9130    1.0000 </r>
       <r>   -6.8556    1.0000 </r>
       <r>   -6.8151    1.0000 </r>
       <r>   -6.7228    1.0000 </r>
       <r>   -6.5096    1.0000 </r>
       <r>   -6.3349    1.0000 </r>
       <r>   -6.2918    1.0000 </r>
       <r>   -6.2829    1.0000 </r>
       <r>   -6.2296    1.0000 </r>
       <r>   -6.1565    1.0000 </r>
       <r>   -6.1377    1.0000 </r>
       <r>   -6.1137    1.0000 </r>
       <r>   -1.4620    1.0000 </r>
       <r>   -1.2183    1.0000 </r>
       <r>   -1.0649    1.0000 </r>
       <r>   -0.7491    1.0000 </r>
       <r>   -0.6973    1.0000 </r>
       <r>   -0.6330    1.0000 </r>
       <r>   -0.6037    1.0000 </r>
       <r>   -0.5496    1.0000 </r>
       <r>   -0.5116    1.0000 </r>
       <r>   -0.5071    1.0000 </r>
       <r>   -0.4180    1.0000 </r>
       <r>   -0.4125    1.0000 </r>
       <r>    5.0042    0.0000 </r>
       <r>    5.0917    0.0000 </r>
       <r>    5.1980    0.0000 </r>
       <r>    5.8870    0.0000 </r>
       <r>    6.0580    0.0000 </r>
       <r>    6.0607    0.0000 </r>
       <r>    6.3171    0.0000 </r>
       <r>    6.7654    0.0000 </r>
      </set>
      <set comment="kpoint 3">
       <r>  -19.7727    1.0000 </r>
       <r>  -19.7224    1.0000 </r>
       <r>  -19.7078    1.0000 </r>
       <r>  -19.6869    1.0000 </r>
       <r>  -12.5624    1.0000 </r>
       <r>  -12.5614    1.0000 </r>
       <r>  -12.5607    1.0000 </r>
       <r>  -12.5205    1.0000 </r>
       <r>   -6.8635    1.0000 </r>
       <r>   -6.8302    1.0000 </r>
       <r>   -6.7419    1.0000 </r>
       <r>   -6.7331    1.0000 </r>
       <r>   -6.4457    1.0000 </r>
       <r>   -6.4035    1.0000 </r>
       <r>   -6.3978    1.0000 </r>
       <r>   -6.2954    1.0000 </r>
       <r>   -6.2534    1.0000 </r>
       <r>   -6.1708    1.0000 </r>
       <r>   -6.1474    1.0000 </r>
       <r>   -6.1215    1.0000 </r>
       <r>   -1.2953    1.0000 </r>
       <r>   -1.1900    1.0000 </r>
       <r>   -1.0430    1.0000 </r>
       <r>   -0.7664    1.0000 </r>
       <r>   -0.7376    1.0000 </r>
       <r>   -0.6693    1.0000 </r>
       <r>   -0.6334    1.0000 </r>
       <r>   -0.5671    1.0000 </r>
       <r>   -0.5420    1.0000 </r>
       <r>   -0.5063    1.0000 </r>
       <r>   -0.4778    1.0000 </r>
       <r>   -0.4565    1.0000 </r>
       <r>    5.3095    0.0000 </r>
       <r>    5.5163    0.0000 </r>
       <r>    5.7412    0.0000 </r>
       <r>    5.8434    0.0000 </r>
       <r>    5.9267    0.0000 </r>
       <r>    6.0858    0.0000 </r>
       <r>    6.3256    0.0000 </r>
       <r>    6.6129    0.0000 </r>
      </set>
      <set comment="kpoint 4">
       <r>  -19.7496    1.0000 </r>
       <r>  -19.7468    1.0000 </r>
       <r>  -19.6983    1.0000 </r>
       <r>  -19.6954    1.0000 </r>
       <r>  -12.5652    1.0000 </r>
       <r>  -12.5644    1.0000 </r>
       <r>  -12.5379    1.0000 </r>
       <r>  -12.5361    1.0000 </r>
       <r>   -6.8454    1.0000 </r>
       <r>   -6.8432    1.0000 </r>
       <r>   -6.6059    1.0000 </r>
       <r>   -6.6028    1.0000 </r>
       <r>   -6.5930    1.0000 </r>
       <r>   -6.5895    1.0000 </r>
       <r>   -6.3259    1.0000 </r>
       <r>   -6.3239    1.0000 </r>
       <r>   -6.2140    1.0000 </r>
       <r>   -6.2112    1.0000 </r>
       <r>   -6.1361    1.0000 </r>
       <r>   -6.1330    1.0000 </r>
       <r>   -1.1274    1.0000 </r>
       <r>   -1.1265    1.0000 </r>
       <r>   -1.0291    1.0000 </r>
       <r>   -1.0283    1.0000 </r>
       <r>   -0.7104    1.0000 </r>
       <r>   -0.7093    1.0000 </r>
       <r>   -0.5572    1.0000 </r>
       <r>   -0.5541    1.0000 </r>
       <r>   -0.5285    1.0000 </r>
       <r>   -0.5269    1.0000 </r>
       <r>   -0.5071    1.0000 </r>
       <r>   -0.5066    1.0000 </r>
       <r>    5.6256    0.0000 </r>
       <r>    5.6259    0.0000 </r>
       <r>    5.9578    0.0000 </r>
       <r>    5.9608    0.0000 </r>
       <r>    6.1091    0.0000 </r>
       <r>    6.1157    0.0000 </r>
       <r>    6.5437    0.0000 </r>
       <r>    6.5452    0.0000 </r>
      </set>
      <set comment="kpoint 5">
       <r>  -19.7893    1.0000 </r>
       <r>  -19.7266    1.0000 </r>
       <r>  -19.7062    1.0000 </r>
       <r>  -19.6667    1.0000 </r>
       <r>  -12.5884    1.0000 </r>
       <r>  -12.5679    1.0000 </r>
       <r>  -12.5560    1.0000 </r>
       <r>  -12.4946    1.0000 </r>
       <r>   -6.9847    1.0000 </r>
       <r>   -6.8738    1.0000 </r>
       <r>   -6.8526    1.0000 </r>
       <r>   -6.7655    1.0000 </r>
       <r>   -6.3647    1.0000 </r>
       <r>   -6.3494    1.0000 </r>
       <r>   -6.2814    1.0000 </r>
       <r>   -6.2814    1.0000 </r>
       <r>   -6.1729    1.0000 </r>
       <r>   -6.1728    1.0000 </r>
       <r>   -6.1430    1.0000 </r>
       <r>   -6.0932    1.0000 </r>
       <r>   -1.4419    1.0000 </r>
       <r>   -1.3656    1.0000 </r>
       <r>   -0.9514    1.0000 </r>
       <r>   -0.7895    1.0000 </r>
       <r>   -0.6725    1.0000 </r>
       <r>   -0.5961    1.0000 </r>
       <r>   -0.5961    1.0000 </r>
       <r>   -0.5839    1.0000 </r>
       <r>   -0.5304    1.0000 </r>
       <r>   -0.4811    1.0000 </r>
       <r>   -0.4154    1.0000 </r>
       <r>   -0.4154    1.0000 </r>
       <r>    5.0350    0.0000 </r>
       <r>    5.0796    0.0000 </r>
       <r>    5.2501    0.0000 </r>
       <r>    5.7429    0.0000 </r>
       <r>    5.8643    0.0000 </r>
       <r>    5.9543    0.0000 </r>
       <r>    6.1519    0.0000 </r>
       <r>    6.8920    0.0000 </r>
      </set>
      <set comment="kpoint 6">
       <r>  -19.7777    1.0000 </r>
       <r>  -19.7291    1.0000 </r>
       <r>  -19.7173    1.0000 </r>
       <r>  -19.6650    1.0000 </r>
       <r>  -12.5785    1.0000 </r>
       <r>  -12.5771    1.0000 </r>
       <r>  -12.5595    1.0000 </r>
       <r>  -12.4897    1.0000 </r>
       <r>   -6.9750    1.0000 </r>
       <r>   -6.9174    1.0000 </r>
       <r>   -6.8012    1.0000 </r>
       <r>   -6.7365    1.0000 </r>
       <r>   -6.4096    1.0000 </r>
       <r>   -6.3006    1.0000 </r>
       <r>   -6.2765    1.0000 </r>
       <r>   -6.2617    1.0000 </r>
       <r>   -6.2447    1.0000 </r>
       <r>   -6.1791    1.0000 </r>
       <r>   -6.1596    1.0000 </r>
       <r>   -6.0914    1.0000 </r>
       <r>   -1.3889    1.0000 </r>
       <r>   -1.3186    1.0000 </r>
       <r>   -0.9230    1.0000 </r>
       <r>   -0.7911    1.0000 </r>
       <r>   -0.6946    1.0000 </r>
       <r>   -0.6338    1.0000 </r>
       <r>   -0.5956    1.0000 </r>
       <r>   -0.5870    1.0000 </r>
       <r>   -0.5687    1.0000 </r>
       <r>   -0.4727    1.0000 </r>
       <r>   -0.4643    1.0000 </r>
       <r>   -0.4441    1.0000 </r>
       <r>    5.2570    0.0000 </r>
       <r>    5.3850    0.0000 </r>
       <r>    5.5659    0.0000 </r>
       <r>    5.6779    0.0000 </r>
       <r>    5.8381    0.0000 </r>
       <r>    5.9083    0.0000 </r>
       <r>    6.0308    0.0000 </r>
       <r>    6.6857    0.0000 </r>
      </set>
      <set comment="kpoint 7">
       <r>  -19.7562    1.0000 </r>
       <r>  -19.7362    1.0000 </r>
       <r>  -19.7246    1.0000 </r>
       <r>  -19.6727    1.0000 </r>
       <r>  -12.5780    1.0000 </r>
       <r>  -12.5610    1.0000 </r>
       <r>  -12.5605    1.0000 </r>
       <r>  -12.5037    1.0000 </r>
       <r>   -6.9523    1.0000 </r>
       <r>   -6.8246    1.0000 </r>
       <r>   -6.7167    1.0000 </r>
       <r>   -6.7009    1.0000 </r>
       <r>   -6.5146    1.0000 </r>
       <r>   -6.3963    1.0000 </r>
       <r>   -6.3672    1.0000 </r>
       <r>   -6.2309    1.0000 </r>
       <r>   -6.2262    1.0000 </r>
       <r>   -6.1904    1.0000 </r>
       <r>   -6.1758    1.0000 </r>
       <r>   -6.1013    1.0000 </r>
       <r>   -1.2714    1.0000 </r>
       <r>   -1.1622    1.0000 </r>
       <r>   -0.9918    1.0000 </r>
       <r>   -0.9050    1.0000 </r>
       <r>   -0.7740    1.0000 </r>
       <r>   -0.6246    1.0000 </r>
       <r>   -0.5742    1.0000 </r>
       <r>   -0.5572    1.0000 </r>
       <r>   -0.5449    1.0000 </r>
       <r>   -0.5358    1.0000 </r>
       <r>   -0.4920    1.0000 </r>
       <r>   -0.4839    1.0000 </r>
       <r>    5.5625    0.0000 </r>
       <r>    5.7312    0.0000 </r>
       <r>    5.7856    0.0000 </r>
       <r>    5.8883    0.0000 </r>
       <r>    5.9519    0.0000 </r>
       <r>    6.0934    0.0000 </r>
       <r>    6.1367    0.0000 </r>
       <r>    6.5326    0.0000 </r>
      </set>
      <set comment="kpoint 8">
       <r>  -19.7581    1.0000 </r>
       <r>  -19.7296    1.0000 </r>
       <r>  -19.7158    1.0000 </r>
       <r>  -19.6867    1.0000 </r>
       <r>  -12.5707    1.0000 </r>
       <r>  -12.5536    1.0000 </r>
       <r>  -12.5474    1.0000 </r>
       <r>  -12.5319    1.0000 </r>
       <r>   -6.9145    1.0000 </r>
       <r>   -6.7154    1.0000 </r>
       <r>   -6.6581    1.0000 </r>
       <r>   -6.6301    1.0000 </r>
       <r>   -6.5701    1.0000 </r>
       <r>   -6.5341    1.0000 </r>
       <r>   -6.4748    1.0000 </r>
       <r>   -6.2322    1.0000 </r>
       <r>   -6.2276    1.0000 </r>
       <r>   -6.1834    1.0000 </r>
       <r>   -6.1645    1.0000 </r>
       <r>   -6.1188    1.0000 </r>
       <r>   -1.1492    1.0000 </r>
       <r>   -1.0802    1.0000 </r>
       <r>   -1.0559    1.0000 </r>
       <r>   -1.0265    1.0000 </r>
       <r>   -0.7363    1.0000 </r>
       <r>   -0.6600    1.0000 </r>
       <r>   -0.6283    1.0000 </r>
       <r>   -0.5332    1.0000 </r>
       <r>   -0.5183    1.0000 </r>
       <r>   -0.5137    1.0000 </r>
       <r>   -0.5062    1.0000 </r>
       <r>   -0.5039    1.0000 </r>
       <r>    5.4176    0.0000 </r>
       <r>    5.8265    0.0000 </r>
       <r>    5.8831    0.0000 </r>
       <r>    5.9591    0.0000 </r>
       <r>    6.0064    0.0000 </r>
       <r>    6.4200    0.0000 </r>
       <r>    6.4305    0.0000 </r>
       <r>    6.5067    0.0000 </r>
      </set>
      <set comment="kpoint 9">
       <r>  -19.7774    1.0000 </r>
       <r>  -19.7105    1.0000 </r>
       <r>  -19.7033    1.0000 </r>
       <r>  -19.6987    1.0000 </r>
       <r>  -12.5626    1.0000 </r>
       <r>  -12.5615    1.0000 </r>
       <r>  -12.5451    1.0000 </r>
       <r>  -12.5366    1.0000 </r>
       <r>   -6.8610    1.0000 </r>
       <r>   -6.8064    1.0000 </r>
       <r>   -6.7811    1.0000 </r>
       <r>   -6.6158    1.0000 </r>
       <r>   -6.5441    1.0000 </r>
       <r>   -6.4375    1.0000 </r>
       <r>   -6.4055    1.0000 </r>
       <r>   -6.2626    1.0000 </r>
       <r>   -6.2609    1.0000 </r>
       <r>   -6.1530    1.0000 </r>
       <r>   -6.1409    1.0000 </r>
       <r>   -6.1380    1.0000 </r>
       <r>   -1.3306    1.0000 </r>
       <r>   -1.1249    1.0000 </r>
       <r>   -1.0946    1.0000 </r>
       <r>   -0.7339    1.0000 </r>
       <r>   -0.7018    1.0000 </r>
       <r>   -0.6825    1.0000 </r>
       <r>   -0.6802    1.0000 </r>
       <r>   -0.5761    1.0000 </r>
       <r>   -0.5277    1.0000 </r>
       <r>   -0.5202    1.0000 </r>
       <r>   -0.4500    1.0000 </r>
       <r>   -0.4491    1.0000 </r>
       <r>    5.1999    0.0000 </r>
       <r>    5.4020    0.0000 </r>
       <r>    5.6680    0.0000 </r>
       <r>    5.9148    0.0000 </r>
       <r>    5.9431    0.0000 </r>
       <r>    6.1462    0.0000 </r>
       <r>    6.4997    0.0000 </r>
       <r>    6.5711    0.0000 </r>
      </set>
      <set comment="kpoint 10">
       <r>  -19.7890    1.0000 </r>
       <r>  -19.7175    1.0000 </r>
       <r>  -19.7039    1.0000 </r>
       <r>  -19.6787    1.0000 </r>
       <r>  -12.5836    1.0000 </r>
       <r>  -12.5559    1.0000 </r>
       <r>  -12.5542    1.0000 </r>
       <r>  -12.5138    1.0000 </r>
       <r>   -6.9243    1.0000 </r>
       <r>   -6.8450    1.0000 </r>
       <r>   -6.8077    1.0000 </r>
       <r>   -6.7617    1.0000 </r>
       <r>   -6.4665    1.0000 </r>
       <r>   -6.3379    1.0000 </r>
       <r>   -6.2971    1.0000 </r>
       <r>   -6.2809    1.0000 </r>
       <r>   -6.2310    1.0000 </r>
       <r>   -6.1587    1.0000 </r>
       <r>   -6.1418    1.0000 </r>
       <r>   -6.1096    1.0000 </r>
       <r>   -1.4486    1.0000 </r>
       <r>   -1.2496    1.0000 </r>
       <r>   -1.0370    1.0000 </r>
       <r>   -0.7578    1.0000 </r>
       <r>   -0.6861    1.0000 </r>
       <r>   -0.6293    1.0000 </r>
       <r>   -0.6003    1.0000 </r>
       <r>   -0.5568    1.0000 </r>
       <r>   -0.5236    1.0000 </r>
       <r>   -0.5042    1.0000 </r>
       <r>   -0.4247    1.0000 </r>
       <r>   -0.4155    1.0000 </r>
       <r>    5.0403    0.0000 </r>
       <r>    5.1199    0.0000 </r>
       <r>    5.2205    0.0000 </r>
       <r>    5.8468    0.0000 </r>
       <r>    6.0367    0.0000 </r>
       <r>    6.0761    0.0000 </r>
       <r>    6.2365    0.0000 </r>
       <r>    6.8510    0.0000 </r>
      </set>
      <set comment="kpoint 11">
       <r>  -19.7708    1.0000 </r>
       <r>  -19.7456    1.0000 </r>
       <r>  -19.7178    1.0000 </r>
       <r>  -19.6547    1.0000 </r>
       <r>  -12.5899    1.0000 </r>
       <r>  -12.5773    1.0000 </r>
       <r>  -12.5650    1.0000 </r>
       <r>  -12.4713    1.0000 </r>
       <r>   -7.0272    1.0000 </r>
       <r>   -7.0144    1.0000 </r>
       <r>   -6.8137    1.0000 </r>
       <r>   -6.6471    1.0000 </r>
       <r>   -6.4885    1.0000 </r>
       <r>   -6.2489    1.0000 </r>
       <r>   -6.2489    1.0000 </r>
       <r>   -6.2069    1.0000 </r>
       <r>   -6.2068    1.0000 </r>
       <r>   -6.1849    1.0000 </r>
       <r>   -6.1578    1.0000 </r>
       <r>   -6.0779    1.0000 </r>
       <r>   -1.5112    1.0000 </r>
       <r>   -1.1927    1.0000 </r>
       <r>   -0.8492    1.0000 </r>
       <r>   -0.8342    1.0000 </r>
       <r>   -0.8155    1.0000 </r>
       <r>   -0.6252    1.0000 </r>
       <r>   -0.6144    1.0000 </r>
       <r>   -0.5386    1.0000 </r>
       <r>   -0.5386    1.0000 </r>
       <r>   -0.4696    1.0000 </r>
       <r>   -0.4696    1.0000 </r>
       <r>   -0.4479    1.0000 </r>
       <r>    5.2715    0.0000 </r>
       <r>    5.5597    0.0000 </r>
       <r>    5.5650    0.0000 </r>
       <r>    5.6121    0.0000 </r>
       <r>    5.6557    0.0000 </r>
       <r>    5.9424    0.0000 </r>
       <r>    6.0415    0.0000 </r>
       <r>    6.2989    0.0000 </r>
      </set>
      <set comment="kpoint 12">
       <r>  -19.7581    1.0000 </r>
       <r>  -19.7489    1.0000 </r>
       <r>  -19.7246    1.0000 </r>
       <r>  -19.6576    1.0000 </r>
       <r>  -12.5896    1.0000 </r>
       <r>  -12.5689    1.0000 </r>
       <r>  -12.5674    1.0000 </r>
       <r>  -12.4768    1.0000 </r>
       <r>   -7.0167    1.0000 </r>
       <r>   -6.9819    1.0000 </r>
       <r>   -6.7785    1.0000 </r>
       <r>   -6.5936    1.0000 </r>
       <r>   -6.5654    1.0000 </r>
       <r>   -6.2780    1.0000 </r>
       <r>   -6.2690    1.0000 </r>
       <r>   -6.2261    1.0000 </r>
       <r>   -6.2157    1.0000 </r>
       <r>   -6.1696    1.0000 </r>
       <r>   -6.1691    1.0000 </r>
       <r>   -6.0816    1.0000 </r>
       <r>   -1.4685    1.0000 </r>
       <r>   -1.0521    1.0000 </r>
       <r>   -1.0004    1.0000 </r>
       <r>   -0.8618    1.0000 </r>
       <r>   -0.8097    1.0000 </r>
       <r>   -0.6029    1.0000 </r>
       <r>   -0.6027    1.0000 </r>
       <r>   -0.5343    1.0000 </r>
       <r>   -0.5235    1.0000 </r>
       <r>   -0.5104    1.0000 </r>
       <r>   -0.5000    1.0000 </r>
       <r>   -0.4558    1.0000 </r>
       <r>    5.4943    0.0000 </r>
       <r>    5.5412    0.0000 </r>
       <r>    5.6074    0.0000 </r>
       <r>    5.7242    0.0000 </r>
       <r>    5.9067    0.0000 </r>
       <r>    5.9662    0.0000 </r>
       <r>    6.0729    0.0000 </r>
       <r>    6.3995    0.0000 </r>
      </set>
      <set comment="kpoint 13">
       <r>  -19.7495    1.0000 </r>
       <r>  -19.7384    1.0000 </r>
       <r>  -19.7315    1.0000 </r>
       <r>  -19.6705    1.0000 </r>
       <r>  -12.5806    1.0000 </r>
       <r>  -12.5608    1.0000 </r>
       <r>  -12.5604    1.0000 </r>
       <r>  -12.5011    1.0000 </r>
       <r>   -6.9688    1.0000 </r>
       <r>   -6.8354    1.0000 </r>
       <r>   -6.6951    1.0000 </r>
       <r>   -6.6662    1.0000 </r>
       <r>   -6.5609    1.0000 </r>
       <r>   -6.3929    1.0000 </r>
       <r>   -6.3789    1.0000 </r>
       <r>   -6.2145    1.0000 </r>
       <r>   -6.2035    1.0000 </r>
       <r>   -6.1936    1.0000 </r>
       <r>   -6.1875    1.0000 </r>
       <r>   -6.0981    1.0000 </r>
       <r>   -1.2855    1.0000 </r>
       <r>   -1.1013    1.0000 </r>
       <r>   -0.9833    1.0000 </r>
       <r>   -0.9691    1.0000 </r>
       <r>   -0.7803    1.0000 </r>
       <r>   -0.6059    1.0000 </r>
       <r>   -0.5666    1.0000 </r>
       <r>   -0.5633    1.0000 </r>
       <r>   -0.5596    1.0000 </r>
       <r>   -0.5227    1.0000 </r>
       <r>   -0.4962    1.0000 </r>
       <r>   -0.4897    1.0000 </r>
       <r>    5.6449    0.0000 </r>
       <r>    5.6830    0.0000 </r>
       <r>    5.7843    0.0000 </r>
       <r>    5.8088    0.0000 </r>
       <r>    6.0480    0.0000 </r>
       <r>    6.0995    0.0000 </r>
       <r>    6.3878    0.0000 </r>
       <r>    6.3955    0.0000 </r>
      </set>
      <set comment="kpoint 14">
       <r>  -19.7547    1.0000 </r>
       <r>  -19.7393    1.0000 </r>
       <r>  -19.7060    1.0000 </r>
       <r>  -19.6901    1.0000 </r>
       <r>  -12.5687    1.0000 </r>
       <r>  -12.5596    1.0000 </r>
       <r>  -12.5417    1.0000 </r>
       <r>  -12.5336    1.0000 </r>
       <r>   -6.8903    1.0000 </r>
       <r>   -6.7824    1.0000 </r>
       <r>   -6.6217    1.0000 </r>
       <r>   -6.6180    1.0000 </r>
       <r>   -6.5778    1.0000 </r>
       <r>   -6.5742    1.0000 </r>
       <r>   -6.4001    1.0000 </r>
       <r>   -6.2651    1.0000 </r>
       <r>   -6.2225    1.0000 </r>
       <r>   -6.1990    1.0000 </r>
       <r>   -6.1486    1.0000 </r>
       <r>   -6.1242    1.0000 </r>
       <r>   -1.1418    1.0000 </r>
       <r>   -1.1055    1.0000 </r>
       <r>   -1.0380    1.0000 </r>
       <r>   -1.0262    1.0000 </r>
       <r>   -0.7269    1.0000 </r>
       <r>   -0.6871    1.0000 </r>
       <r>   -0.5926    1.0000 </r>
       <r>   -0.5312    1.0000 </r>
       <r>   -0.5243    1.0000 </r>
       <r>   -0.5232    1.0000 </r>
       <r>   -0.5099    1.0000 </r>
       <r>   -0.5048    1.0000 </r>
       <r>    5.4981    0.0000 </r>
       <r>    5.7443    0.0000 </r>
       <r>    5.9245    0.0000 </r>
       <r>    5.9874    0.0000 </r>
       <r>    6.0073    0.0000 </r>
       <r>    6.2755    0.0000 </r>
       <r>    6.4716    0.0000 </r>
       <r>    6.5345    0.0000 </r>
      </set>
      <set comment="kpoint 15">
       <r>  -19.7683    1.0000 </r>
       <r>  -19.7280    1.0000 </r>
       <r>  -19.7123    1.0000 </r>
       <r>  -19.6811    1.0000 </r>
       <r>  -12.5681    1.0000 </r>
       <r>  -12.5617    1.0000 </r>
       <r>  -12.5610    1.0000 </r>
       <r>  -12.5137    1.0000 </r>
       <r>   -6.8958    1.0000 </r>
       <r>   -6.8004    1.0000 </r>
       <r>   -6.7766    1.0000 </r>
       <r>   -6.7235    1.0000 </r>
       <r>   -6.4574    1.0000 </r>
       <r>   -6.4017    1.0000 </r>
       <r>   -6.3315    1.0000 </r>
       <r>   -6.3219    1.0000 </r>
       <r>   -6.2461    1.0000 </r>
       <r>   -6.1788    1.0000 </r>
       <r>   -6.1550    1.0000 </r>
       <r>   -6.1133    1.0000 </r>
       <r>   -1.2607    1.0000 </r>
       <r>   -1.2215    1.0000 </r>
       <r>   -1.0223    1.0000 </r>
       <r>   -0.8008    1.0000 </r>
       <r>   -0.7522    1.0000 </r>
       <r>   -0.6570    1.0000 </r>
       <r>   -0.6106    1.0000 </r>
       <r>   -0.5586    1.0000 </r>
       <r>   -0.5482    1.0000 </r>
       <r>   -0.5004    1.0000 </r>
       <r>   -0.4997    1.0000 </r>
       <r>   -0.4637    1.0000 </r>
       <r>    5.3936    0.0000 </r>
       <r>    5.6383    0.0000 </r>
       <r>    5.8134    0.0000 </r>
       <r>    5.8218    0.0000 </r>
       <r>    5.8729    0.0000 </r>
       <r>    6.0304    0.0000 </r>
       <r>    6.2388    0.0000 </r>
       <r>    6.5834    0.0000 </r>
      </set>
      <set comment="kpoint 16">
       <r>  -19.7745    1.0000 </r>
       <r>  -19.7323    1.0000 </r>
       <r>  -19.7193    1.0000 </r>
       <r>  -19.6630    1.0000 </r>
       <r>  -12.5809    1.0000 </r>
       <r>  -12.5766    1.0000 </r>
       <r>  -12.5606    1.0000 </r>
       <r>  -12.4861    1.0000 </r>
       <r>   -6.9840    1.0000 </r>
       <r>   -6.9381    1.0000 </r>
       <r>   -6.7948    1.0000 </r>
       <r>   -6.7162    1.0000 </r>
       <r>   -6.4330    1.0000 </r>
       <r>   -6.2975    1.0000 </r>
       <r>   -6.2563    1.0000 </r>
       <r>   -6.2485    1.0000 </r>
       <r>   -6.2473    1.0000 </r>
       <r>   -6.1848    1.0000 </r>
       <r>   -6.1622    1.0000 </r>
       <r>   -6.0887    1.0000 </r>
       <r>   -1.4106    1.0000 </r>
       <r>   -1.2813    1.0000 </r>
       <r>   -0.9065    1.0000 </r>
       <r>   -0.7958    1.0000 </r>
       <r>   -0.7418    1.0000 </r>
       <r>   -0.6255    1.0000 </r>
       <r>   -0.5913    1.0000 </r>
       <r>   -0.5864    1.0000 </r>
       <r>   -0.5600    1.0000 </r>
       <r>   -0.4732    1.0000 </r>
       <r>   -0.4680    1.0000 </r>
       <r>   -0.4522    1.0000 </r>
       <r>    5.2916    0.0000 </r>
       <r>    5.4710    0.0000 </r>
       <r>    5.6553    0.0000 </r>
       <r>    5.6798    0.0000 </r>
       <r>    5.7892    0.0000 </r>
       <r>    5.8596    0.0000 </r>
       <r>    6.0031    0.0000 </r>
       <r>    6.5903    0.0000 </r>
      </set>
      <set comment="kpoint 17">
       <r>  -19.7893    1.0000 </r>
       <r>  -19.7130    1.0000 </r>
       <r>  -19.6847    1.0000 </r>
       <r>  -19.6763    1.0000 </r>
       <r>  -12.5813    1.0000 </r>
       <r>  -12.5560    1.0000 </r>
       <r>  -12.5227    1.0000 </r>
       <r>  -12.5218    1.0000 </r>
       <r>   -6.9214    1.0000 </r>
       <r>   -6.9130    1.0000 </r>
       <r>   -6.8290    1.0000 </r>
       <r>   -6.6205    1.0000 </r>
       <r>   -6.6142    1.0000 </r>
       <r>   -6.3497    1.0000 </r>
       <r>   -6.2814    1.0000 </r>
       <r>   -6.2812    1.0000 </r>
       <r>   -6.2567    1.0000 </r>
       <r>   -6.2072    1.0000 </r>
       <r>   -6.1991    1.0000 </r>
       <r>   -6.1517    1.0000 </r>
       <r>   -1.4529    1.0000 </r>
       <r>   -1.1384    1.0000 </r>
       <r>   -1.1364    1.0000 </r>
       <r>   -0.8292    1.0000 </r>
       <r>   -0.8259    1.0000 </r>
       <r>   -0.6444    1.0000 </r>
       <r>   -0.6025    1.0000 </r>
       <r>   -0.5320    1.0000 </r>
       <r>   -0.5315    1.0000 </r>
       <r>   -0.5302    1.0000 </r>
       <r>   -0.4154    1.0000 </r>
       <r>   -0.4154    1.0000 </r>
       <r>    5.0350    0.0000 </r>
       <r>    5.0796    0.0000 </r>
       <r>    5.2501    0.0000 </r>
       <r>    6.1099    0.0000 </r>
       <r>    6.2518    0.0000 </r>
       <r>    6.2598    0.0000 </r>
       <r>    6.5846    0.0000 </r>
       <r>    6.5884    0.0000 </r>
      </set>
      <set comment="kpoint 18">
       <r>  -19.7830    1.0000 </r>
       <r>  -19.7100    1.0000 </r>
       <r>  -19.6948    1.0000 </r>
       <r>  -19.6758    1.0000 </r>
       <r>  -12.5732    1.0000 </r>
       <r>  -12.5575    1.0000 </r>
       <r>  -12.5392    1.0000 </r>
       <r>  -12.5108    1.0000 </r>
       <r>   -6.9048    1.0000 </r>
       <r>   -6.8584    1.0000 </r>
       <r>   -6.8323    1.0000 </r>
       <r>   -6.7110    1.0000 </r>
       <r>   -6.5000    1.0000 </r>
       <r>   -6.3600    1.0000 </r>
       <r>   -6.3120    1.0000 </r>
       <r>   -6.2751    1.0000 </r>
       <r>   -6.2572    1.0000 </r>
       <r>   -6.2238    1.0000 </r>
       <r>   -6.2141    1.0000 </r>
       <r>   -6.1972    1.0000 </r>
       <r>   -1.3937    1.0000 </r>
       <r>   -1.1847    1.0000 </r>
       <r>   -1.0646    1.0000 </r>
       <r>   -0.8237    1.0000 </r>
       <r>   -0.7785    1.0000 </r>
       <r>   -0.6901    1.0000 </r>
       <r>   -0.6024    1.0000 </r>
       <r>   -0.5677    1.0000 </r>
       <r>   -0.5471    1.0000 </r>
       <r>   -0.5418    1.0000 </r>
       <r>   -0.4478    1.0000 </r>
       <r>   -0.4367    1.0000 </r>
       <r>    5.2050    0.0000 </r>
       <r>    5.2451    0.0000 </r>
       <r>    5.3533    0.0000 </r>
       <r>    6.1416    0.0000 </r>
       <r>    6.1998    0.0000 </r>
       <r>    6.3025    0.0000 </r>
       <r>    6.4383    0.0000 </r>
       <r>    6.8132    0.0000 </r>
      </set>
      <set comment="kpoint 19">
       <r>  -19.7658    1.0000 </r>
       <r>  -19.7161    1.0000 </r>
       <r>  -19.7016    1.0000 </r>
       <r>  -19.6808    1.0000 </r>
       <r>  -12.5602    1.0000 </r>
       <r>  -12.5535    1.0000 </r>
       <r>  -12.5521    1.0000 </r>
       <r>  -12.5124    1.0000 </r>
       <r>   -6.8452    1.0000 </r>
       <r>   -6.8383    1.0000 </r>
       <r>   -6.7442    1.0000 </r>
       <r>   -6.7320    1.0000 </r>
       <r>   -6.4492    1.0000 </r>
       <r>   -6.3957    1.0000 </r>
       <r>   -6.3921    1.0000 </r>
       <r>   -6.3266    1.0000 </r>
       <r>   -6.2712    1.0000 </r>
       <r>   -6.2536    1.0000 </r>
       <r>   -6.2342    1.0000 </r>
       <r>   -6.2045    1.0000 </r>
       <r>   -1.2491    1.0000 </r>
       <r>   -1.1454    1.0000 </r>
       <r>   -1.0395    1.0000 </r>
       <r>   -0.7938    1.0000 </r>
       <r>   -0.7872    1.0000 </r>
       <r>   -0.7468    1.0000 </r>
       <r>   -0.6948    1.0000 </r>
       <r>   -0.5730    1.0000 </r>
       <r>   -0.5514    1.0000 </r>
       <r>   -0.5439    1.0000 </r>
       <r>   -0.5055    1.0000 </r>
       <r>   -0.4950    1.0000 </r>
       <r>    5.5006    0.0000 </r>
       <r>    5.6696    0.0000 </r>
       <r>    5.8390    0.0000 </r>
       <r>    6.1089    0.0000 </r>
       <r>    6.1548    0.0000 </r>
       <r>    6.3125    0.0000 </r>
       <r>    6.4738    0.0000 </r>
       <r>    6.6662    0.0000 </r>
      </set>
      <set comment="kpoint 20">
       <r>  -19.7430    1.0000 </r>
       <r>  -19.7401    1.0000 </r>
       <r>  -19.6922    1.0000 </r>
       <r>  -19.6893    1.0000 </r>
       <r>  -12.5605    1.0000 </r>
       <r>  -12.5596    1.0000 </r>
       <r>  -12.5293    1.0000 </r>
       <r>  -12.5275    1.0000 </r>
       <r>   -6.8397    1.0000 </r>
       <r>   -6.8373    1.0000 </r>
       <r>   -6.6012    1.0000 </r>
       <r>   -6.5977    1.0000 </r>
       <r>   -6.5932    1.0000 </r>
       <r>   -6.5896    1.0000 </r>
       <r>   -6.3293    1.0000 </r>
       <r>   -6.3278    1.0000 </r>
       <r>   -6.2775    1.0000 </r>
       <r>   -6.2754    1.0000 </r>
       <r>   -6.2204    1.0000 </r>
       <r>   -6.2175    1.0000 </r>
       <r>   -1.1023    1.0000 </r>
       <r>   -1.1018    1.0000 </r>
       <r>   -1.0040    1.0000 </r>
       <r>   -1.0030    1.0000 </r>
       <r>   -0.7795    1.0000 </r>
       <r>   -0.7782    1.0000 </r>
       <r>   -0.5968    1.0000 </r>
       <r>   -0.5942    1.0000 </r>
       <r>   -0.5568    1.0000 </r>
       <r>   -0.5558    1.0000 </r>
       <r>   -0.5377    1.0000 </r>
       <r>   -0.5375    1.0000 </r>
       <r>    5.8317    0.0000 </r>
       <r>    5.8324    0.0000 </r>
       <r>    6.2010    0.0000 </r>
       <r>    6.2070    0.0000 </r>
       <r>    6.2120    0.0000 </r>
       <r>    6.2156    0.0000 </r>
       <r>    6.6385    0.0000 </r>
       <r>    6.6494    0.0000 </r>
      </set>
      <set comment="kpoint 21">
       <r>  -19.7658    1.0000 </r>
       <r>  -19.7161    1.0000 </r>
       <r>  -19.7016    1.0000 </r>
       <r>  -19.6808    1.0000 </r>
       <r>  -12.5602    1.0000 </r>
       <r>  -12.5535    1.0000 </r>
       <r>  -12.5521    1.0000 </r>
       <r>  -12.5124    1.0000 </r>
       <r>   -6.8452    1.0000 </r>
       <r>   -6.8383    1.0000 </r>
       <r>   -6.7443    1.0000 </r>
       <r>   -6.7320    1.0000 </r>
       <r>   -6.4492    1.0000 </r>
       <r>   -6.3957    1.0000 </r>
       <r>   -6.3921    1.0000 </r>
       <r>   -6.3266    1.0000 </r>
       <r>   -6.2712    1.0000 </r>
       <r>   -6.2536    1.0000 </r>
       <r>   -6.2342    1.0000 </r>
       <r>   -6.2045    1.0000 </r>
       <r>   -1.2491    1.0000 </r>
       <r>   -1.1454    1.0000 </r>
       <r>   -1.0395    1.0000 </r>
       <r>   -0.7937    1.0000 </r>
       <r>   -0.7873    1.0000 </r>
       <r>   -0.7468    1.0000 </r>
       <r>   -0.6948    1.0000 </r>
       <r>   -0.5730    1.0000 </r>
       <r>   -0.5514    1.0000 </r>
       <r>   -0.5439    1.0000 </r>
       <r>   -0.5055    1.0000 </r>
       <r>   -0.4950    1.0000 </r>
       <r>    5.5006    0.0000 </r>
       <r>    5.6696    0.0000 </r>
       <r>    5.8390    0.0000 </r>
       <r>    6.1089    0.0000 </r>
       <r>    6.1548    0.0000 </r>
       <r>    6.3125    0.0000 </r>
       <r>    6.4738    0.0000 </r>
       <r>    6.6663    0.0000 </r>
      </set>
      <set comment="kpoint 22">
       <r>  -19.7830    1.0000 </r>
       <r>  -19.7100    1.0000 </r>
       <r>  -19.6948    1.0000 </r>
       <r>  -19.6758    1.0000 </r>
       <r>  -12.5732    1.0000 </r>
       <r>  -12.5575    1.0000 </r>
       <r>  -12.5392    1.0000 </r>
       <r>  -12.5108    1.0000 </r>
       <r>   -6.9048    1.0000 </r>
       <r>   -6.8584    1.0000 </r>
       <r>   -6.8323    1.0000 </r>
       <r>   -6.7110    1.0000 </r>
       <r>   -6.5000    1.0000 </r>
       <r>   -6.3600    1.0000 </r>
       <r>   -6.3120    1.0000 </r>
       <r>   -6.2751    1.0000 </r>
       <r>   -6.2572    1.0000 </r>
       <r>   -6.2238    1.0000 </r>
       <r>   -6.2141    1.0000 </r>
       <r>   -6.1972    1.0000 </r>
       <r>   -1.3937    1.0000 </r>
       <r>   -1.1847    1.0000 </r>
       <r>   -1.0646    1.0000 </r>
       <r>   -0.8237    1.0000 </r>
       <r>   -0.7785    1.0000 </r>
       <r>   -0.6901    1.0000 </r>
       <r>   -0.6024    1.0000 </r>
       <r>   -0.5677    1.0000 </r>
       <r>   -0.5471    1.0000 </r>
       <r>   -0.5418    1.0000 </r>
       <r>   -0.4478    1.0000 </r>
       <r>   -0.4367    1.0000 </r>
       <r>    5.2050    0.0000 </r>
       <r>    5.2451    0.0000 </r>
       <r>    5.3533    0.0000 </r>
       <r>    6.1416    0.0000 </r>
       <r>    6.1998    0.0000 </r>
       <r>    6.3025    0.0000 </r>
       <r>    6.4383    0.0000 </r>
       <r>    6.8132    0.0000 </r>
      </set>
      <set comment="kpoint 23">
       <r>  -19.7822    1.0000 </r>
       <r>  -19.7203    1.0000 </r>
       <r>  -19.7000    1.0000 </r>
       <r>  -19.6607    1.0000 </r>
       <r>  -12.5783    1.0000 </r>
       <r>  -12.5580    1.0000 </r>
       <r>  -12.5571    1.0000 </r>
       <r>  -12.4865    1.0000 </r>
       <r>   -6.9727    1.0000 </r>
       <r>   -6.8643    1.0000 </r>
       <r>   -6.8560    1.0000 </r>
       <r>   -6.7847    1.0000 </r>
       <r>   -6.3723    1.0000 </r>
       <r>   -6.3581    1.0000 </r>
       <r>   -6.3090    1.0000 </r>
       <r>   -6.2695    1.0000 </r>
       <r>   -6.2633    1.0000 </r>
       <r>   -6.2305    1.0000 </r>
       <r>   -6.1737    1.0000 </r>
       <r>   -6.1645    1.0000 </r>
       <r>   -1.3773    1.0000 </r>
       <r>   -1.3136    1.0000 </r>
       <r>   -0.9808    1.0000 </r>
       <r>   -0.8691    1.0000 </r>
       <r>   -0.7521    1.0000 </r>
       <r>   -0.6234    1.0000 </r>
       <r>   -0.6214    1.0000 </r>
       <r>   -0.5835    1.0000 </r>
       <r>   -0.5454    1.0000 </r>
       <r>   -0.5412    1.0000 </r>
       <r>   -0.4525    1.0000 </r>
       <r>   -0.4322    1.0000 </r>
       <r>    5.2025    0.0000 </r>
       <r>    5.2704    0.0000 </r>
       <r>    5.3949    0.0000 </r>
       <r>    5.9802    0.0000 </r>
       <r>    6.0039    0.0000 </r>
       <r>    6.1148    0.0000 </r>
       <r>    6.3651    0.0000 </r>
       <r>    6.9063    0.0000 </r>
      </set>
      <set comment="kpoint 24">
       <r>  -19.7707    1.0000 </r>
       <r>  -19.7228    1.0000 </r>
       <r>  -19.7111    1.0000 </r>
       <r>  -19.6591    1.0000 </r>
       <r>  -12.5697    1.0000 </r>
       <r>  -12.5672    1.0000 </r>
       <r>  -12.5593    1.0000 </r>
       <r>  -12.4818    1.0000 </r>
       <r>   -6.9563    1.0000 </r>
       <r>   -6.9041    1.0000 </r>
       <r>   -6.8155    1.0000 </r>
       <r>   -6.7510    1.0000 </r>
       <r>   -6.4117    1.0000 </r>
       <r>   -6.3349    1.0000 </r>
       <r>   -6.2763    1.0000 </r>
       <r>   -6.2743    1.0000 </r>
       <r>   -6.2641    1.0000 </r>
       <r>   -6.2418    1.0000 </r>
       <r>   -6.2354    1.0000 </r>
       <r>   -6.1713    1.0000 </r>
       <r>   -1.3298    1.0000 </r>
       <r>   -1.2685    1.0000 </r>
       <r>   -0.9664    1.0000 </r>
       <r>   -0.8495    1.0000 </r>
       <r>   -0.7355    1.0000 </r>
       <r>   -0.6977    1.0000 </r>
       <r>   -0.6462    1.0000 </r>
       <r>   -0.5549    1.0000 </r>
       <r>   -0.5543    1.0000 </r>
       <r>   -0.5503    1.0000 </r>
       <r>   -0.4908    1.0000 </r>
       <r>   -0.4848    1.0000 </r>
       <r>    5.4539    0.0000 </r>
       <r>    5.5531    0.0000 </r>
       <r>    5.6624    0.0000 </r>
       <r>    5.9483    0.0000 </r>
       <r>    5.9937    0.0000 </r>
       <r>    6.0841    0.0000 </r>
       <r>    6.1993    0.0000 </r>
       <r>    6.6988    0.0000 </r>
      </set>
      <set comment="kpoint 25">
       <r>  -19.7495    1.0000 </r>
       <r>  -19.7298    1.0000 </r>
       <r>  -19.7183    1.0000 </r>
       <r>  -19.6668    1.0000 </r>
       <r>  -12.5702    1.0000 </r>
       <r>  -12.5573    1.0000 </r>
       <r>  -12.5536    1.0000 </r>
       <r>  -12.4954    1.0000 </r>
       <r>   -6.9400    1.0000 </r>
       <r>   -6.8105    1.0000 </r>
       <r>   -6.7184    1.0000 </r>
       <r>   -6.7156    1.0000 </r>
       <r>   -6.5006    1.0000 </r>
       <r>   -6.3934    1.0000 </r>
       <r>   -6.3876    1.0000 </r>
       <r>   -6.2810    1.0000 </r>
       <r>   -6.2711    1.0000 </r>
       <r>   -6.2567    1.0000 </r>
       <r>   -6.2224    1.0000 </r>
       <r>   -6.1829    1.0000 </r>
       <r>   -1.2292    1.0000 </r>
       <r>   -1.1183    1.0000 </r>
       <r>   -1.0129    1.0000 </r>
       <r>   -0.8826    1.0000 </r>
       <r>   -0.8453    1.0000 </r>
       <r>   -0.6819    1.0000 </r>
       <r>   -0.6179    1.0000 </r>
       <r>   -0.5749    1.0000 </r>
       <r>   -0.5531    1.0000 </r>
       <r>   -0.5475    1.0000 </r>
       <r>   -0.5468    1.0000 </r>
       <r>   -0.5450    1.0000 </r>
       <r>    5.8051    0.0000 </r>
       <r>    5.8822    0.0000 </r>
       <r>    6.0456    0.0000 </r>
       <r>    6.0912    0.0000 </r>
       <r>    6.1173    0.0000 </r>
       <r>    6.1898    0.0000 </r>
       <r>    6.2397    0.0000 </r>
       <r>    6.5643    0.0000 </r>
      </set>
      <set comment="kpoint 26">
       <r>  -19.7514    1.0000 </r>
       <r>  -19.7232    1.0000 </r>
       <r>  -19.7094    1.0000 </r>
       <r>  -19.6806    1.0000 </r>
       <r>  -12.5667    1.0000 </r>
       <r>  -12.5474    1.0000 </r>
       <r>  -12.5404    1.0000 </r>
       <r>  -12.5225    1.0000 </r>
       <r>   -6.9139    1.0000 </r>
       <r>   -6.6996    1.0000 </r>
       <r>   -6.6430    1.0000 </r>
       <r>   -6.6169    1.0000 </r>
       <r>   -6.5840    1.0000 </r>
       <r>   -6.5405    1.0000 </r>
       <r>   -6.4839    1.0000 </r>
       <r>   -6.2925    1.0000 </r>
       <r>   -6.2610    1.0000 </r>
       <r>   -6.2454    1.0000 </r>
       <r>   -6.2221    1.0000 </r>
       <r>   -6.2037    1.0000 </r>
       <r>   -1.1359    1.0000 </r>
       <r>   -1.0361    1.0000 </r>
       <r>   -1.0256    1.0000 </r>
       <r>   -1.0086    1.0000 </r>
       <r>   -0.8254    1.0000 </r>
       <r>   -0.7018    1.0000 </r>
       <r>   -0.6667    1.0000 </r>
       <r>   -0.5851    1.0000 </r>
       <r>   -0.5811    1.0000 </r>
       <r>   -0.5415    1.0000 </r>
       <r>   -0.5327    1.0000 </r>
       <r>   -0.5072    1.0000 </r>
       <r>    5.5723    0.0000 </r>
       <r>    6.0563    0.0000 </r>
       <r>    6.0791    0.0000 </r>
       <r>    6.1403    0.0000 </r>
       <r>    6.2536    0.0000 </r>
       <r>    6.5109    0.0000 </r>
       <r>    6.5794    0.0000 </r>
       <r>    6.5949    0.0000 </r>
      </set>
      <set comment="kpoint 27">
       <r>  -19.7704    1.0000 </r>
       <r>  -19.7042    1.0000 </r>
       <r>  -19.6971    1.0000 </r>
       <r>  -19.6925    1.0000 </r>
       <r>  -12.5610    1.0000 </r>
       <r>  -12.5521    1.0000 </r>
       <r>  -12.5371    1.0000 </r>
       <r>  -12.5286    1.0000 </r>
       <r>   -6.8708    1.0000 </r>
       <r>   -6.7941    1.0000 </r>
       <r>   -6.7737    1.0000 </r>
       <r>   -6.6144    1.0000 </r>
       <r>   -6.5413    1.0000 </r>
       <r>   -6.4504    1.0000 </r>
       <r>   -6.3978    1.0000 </r>
       <r>   -6.3091    1.0000 </r>
       <r>   -6.2510    1.0000 </r>
[...]
       <r>   -1.1216    1.0000 </r>
       <r>   -1.1185    1.0000 </r>
       <r>   -0.9505    1.0000 </r>
       <r>   -0.9373    1.0000 </r>
       <r>   -0.7921    1.0000 </r>
       <r>   -0.7739    1.0000 </r>
       <r>   -0.5694    1.0000 </r>
       <r>   -0.5292    1.0000 </r>
       <r>    6.1485    0.0000 </r>
       <r>    6.5607    0.0000 </r>
       <r>    6.6622    0.0000 </r>
       <r>    6.7193    0.0000 </r>
       <r>    6.7376    0.0000 </r>
       <r>    6.7665    0.0000 </r>
       <r>    7.1741    0.0000 </r>
       <r>    7.1911    0.0000 </r>
      </set>
      <set comment="kpoint 151">
       <r>  -19.6952    1.0000 </r>
       <r>  -19.6603    1.0000 </r>
       <r>  -19.6461    1.0000 </r>
       <r>  -19.6171    1.0000 </r>
       <r>  -12.5485    1.0000 </r>
       <r>  -12.4858    1.0000 </r>
       <r>  -12.4642    1.0000 </r>
       <r>  -12.4259    1.0000 </r>
       <r>   -6.9632    1.0000 </r>
       <r>   -6.9565    1.0000 </r>
       <r>   -6.8853    1.0000 </r>
       <r>   -6.8845    1.0000 </r>
       <r>   -6.8752    1.0000 </r>
       <r>   -6.8089    1.0000 </r>
       <r>   -6.7604    1.0000 </r>
       <r>   -6.6642    1.0000 </r>
       <r>   -6.3965    1.0000 </r>
       <r>   -6.2902    1.0000 </r>
       <r>   -6.2552    1.0000 </r>
       <r>   -6.2364    1.0000 </r>
       <r>   -1.2941    1.0000 </r>
       <r>   -1.2706    1.0000 </r>
       <r>   -1.2344    1.0000 </r>
       <r>   -1.0451    1.0000 </r>
       <r>   -1.0212    1.0000 </r>
       <r>   -1.0108    1.0000 </r>
       <r>   -0.9898    1.0000 </r>
       <r>   -0.9204    1.0000 </r>
       <r>   -0.7869    1.0000 </r>
       <r>   -0.6731    1.0000 </r>
       <r>   -0.5775    1.0000 </r>
       <r>   -0.5367    1.0000 </r>
       <r>    6.2366    0.0000 </r>
       <r>    6.2810    0.0000 </r>
       <r>    6.2981    0.0000 </r>
       <r>    6.3912    0.0000 </r>
       <r>    6.4530    0.0000 </r>
       <r>    7.0899    0.0000 </r>
       <r>    7.1209    0.0000 </r>
       <r>    7.2393    0.0000 </r>
      </set>
      <set comment="kpoint 152">
       <r>  -19.7007    1.0000 </r>
       <r>  -19.6642    1.0000 </r>
       <r>  -19.6530    1.0000 </r>
       <r>  -19.6002    1.0000 </r>
       <r>  -12.5579    1.0000 </r>
       <r>  -12.4916    1.0000 </r>
       <r>  -12.4704    1.0000 </r>
       <r>  -12.4031    1.0000 </r>
       <r>   -7.0024    1.0000 </r>
       <r>   -6.9718    1.0000 </r>
       <r>   -6.9658    1.0000 </r>
       <r>   -6.8648    1.0000 </r>
       <r>   -6.8444    1.0000 </r>
       <r>   -6.8399    1.0000 </r>
       <r>   -6.7886    1.0000 </r>
       <r>   -6.7624    1.0000 </r>
       <r>   -6.3795    1.0000 </r>
       <r>   -6.2035    1.0000 </r>
       <r>   -6.1520    1.0000 </r>
       <r>   -6.1480    1.0000 </r>
       <r>   -1.3992    1.0000 </r>
       <r>   -1.3660    1.0000 </r>
       <r>   -1.3141    1.0000 </r>
       <r>   -1.2974    1.0000 </r>
       <r>   -0.9837    1.0000 </r>
       <r>   -0.9041    1.0000 </r>
       <r>   -0.8676    1.0000 </r>
       <r>   -0.8436    1.0000 </r>
       <r>   -0.7397    1.0000 </r>
       <r>   -0.5496    1.0000 </r>
       <r>   -0.5383    1.0000 </r>
       <r>   -0.5231    1.0000 </r>
       <r>    5.8391    0.0000 </r>
       <r>    5.8957    0.0000 </r>
       <r>    5.9446    0.0000 </r>
       <r>    6.1004    0.0000 </r>
       <r>    6.3075    0.0000 </r>
       <r>    7.1972    0.0000 </r>
       <r>    7.2770    0.0000 </r>
       <r>    7.6213    0.0000 </r>
      </set>
     </set>
    </set>
   </array>
  </eigenvalues>
  <separator name="orbital magnetization" >
   <v name="MAGDIPOLOUT">      0.00000000      0.00000000      0.00000000</v>
  </separator>
  <dos>
   <i name="efermi">     -0.34784925 </i>
   <total>
    <array>
     <dimension dim="1">gridpoints</dimension>
     <dimension dim="2">spin</dimension>
     <field>energy</field>
     <field>total</field>
     <field>integrated</field>
     <set>
      <set comment="spin 1">
       <r>   -21.1716     0.0000     0.0000 </r>
       <r>   -21.0708     0.0000     0.0000 </r>
       <r>   -20.9700     0.0000     0.0000 </r>
       <r>   -20.8691     0.0000     0.0000 </r>
       <r>   -20.7683     0.0000     0.0000 </r>
       <r>   -20.6674     0.0000     0.0000 </r>
       <r>   -20.5666     0.0000     0.0000 </r>
       <r>   -20.4657     0.0000     0.0000 </r>
       <r>   -20.3649     0.0000     0.0000 </r>
       <r>   -20.2641     0.0000     0.0000 </r>
       <r>   -20.1632     0.0000     0.0000 </r>
       <r>   -20.0624     0.0000     0.0000 </r>
       <r>   -19.9615     0.0000     0.0000 </r>
       <r>   -19.8607     0.0000     0.0000 </r>
       <r>   -19.7599     4.5284     0.4566 </r>
       <r>   -19.6590    48.4523     5.9460 </r>
       <r>   -19.5582     8.8579     8.0000 </r>
       <r>   -19.4573     0.0000     8.0000 </r>
       <r>   -19.3565     0.0000     8.0000 </r>
       <r>   -19.2556     0.0000     8.0000 </r>
       <r>   -19.1548     0.0000     8.0000 </r>
       <r>   -19.0540     0.0000     8.0000 </r>
       <r>   -18.9531     0.0000     8.0000 </r>
       <r>   -18.8523     0.0000     8.0000 </r>
       <r>   -18.7514     0.0000     8.0000 </r>
       <r>   -18.6506     0.0000     8.0000 </r>
       <r>   -18.5498     0.0000     8.0000 </r>
       <r>   -18.4489     0.0000     8.0000 </r>
       <r>   -18.3481     0.0000     8.0000 </r>
       <r>   -18.2472     0.0000     8.0000 </r>
       <r>   -18.1464     0.0000     8.0000 </r>
       <r>   -18.0455     0.0000     8.0000 </r>
       <r>   -17.9447     0.0000     8.0000 </r>
       <r>   -17.8439     0.0000     8.0000 </r>
       <r>   -17.7430     0.0000     8.0000 </r>
       <r>   -17.6422     0.0000     8.0000 </r>
       <r>   -17.5413     0.0000     8.0000 </r>
       <r>   -17.4405     0.0000     8.0000 </r>
       <r>   -17.3397     0.0000     8.0000 </r>
       <r>   -17.2388     0.0000     8.0000 </r>
       <r>   -17.1380     0.0000     8.0000 </r>
       <r>   -17.0371     0.0000     8.0000 </r>
       <r>   -16.9363     0.0000     8.0000 </r>
       <r>   -16.8354     0.0000     8.0000 </r>
       <r>   -16.7346     0.0000     8.0000 </r>
       <r>   -16.6338     0.0000     8.0000 </r>
       <r>   -16.5329     0.0000     8.0000 </r>
       <r>   -16.4321     0.0000     8.0000 </r>
       <r>   -16.3312     0.0000     8.0000 </r>
       <r>   -16.2304     0.0000     8.0000 </r>
       <r>   -16.1296     0.0000     8.0000 </r>
       <r>   -16.0287     0.0000     8.0000 </r>
       <r>   -15.9279     0.0000     8.0000 </r>
       <r>   -15.8270     0.0000     8.0000 </r>
       <r>   -15.7262     0.0000     8.0000 </r>
       <r>   -15.6253     0.0000     8.0000 </r>
       <r>   -15.5245     0.0000     8.0000 </r>
       <r>   -15.4237     0.0000     8.0000 </r>
       <r>   -15.3228     0.0000     8.0000 </r>
       <r>   -15.2220     0.0000     8.0000 </r>
       <r>   -15.1211     0.0000     8.0000 </r>
       <r>   -15.0203     0.0000     8.0000 </r>
       <r>   -14.9195     0.0000     8.0000 </r>
       <r>   -14.8186     0.0000     8.0000 </r>
       <r>   -14.7178     0.0000     8.0000 </r>
       <r>   -14.6169     0.0000     8.0000 </r>
       <r>   -14.5161     0.0000     8.0000 </r>
       <r>   -14.4153     0.0000     8.0000 </r>
       <r>   -14.3144     0.0000     8.0000 </r>
       <r>   -14.2136     0.0000     8.0000 </r>
       <r>   -14.1127     0.0000     8.0000 </r>
       <r>   -14.0119     0.0000     8.0000 </r>
       <r>   -13.9110     0.0000     8.0000 </r>
       <r>   -13.8102     0.0000     8.0000 </r>
       <r>   -13.7094     0.0000     8.0000 </r>
       <r>   -13.6085     0.0000     8.0000 </r>
       <r>   -13.5077     0.0000     8.0000 </r>
       <r>   -13.4068     0.0000     8.0000 </r>
       <r>   -13.3060     0.0000     8.0000 </r>
       <r>   -13.2052     0.0000     8.0000 </r>
       <r>   -13.1043     0.0000     8.0000 </r>
       <r>   -13.0035     0.0000     8.0000 </r>
       <r>   -12.9026     0.0000     8.0000 </r>
       <r>   -12.8018     0.0000     8.0000 </r>
       <r>   -12.7009     0.0000     8.0000 </r>
       <r>   -12.6001     0.0606     8.0061 </r>
       <r>   -12.4993    49.7457    13.2167 </r>
       <r>   -12.3984    17.2291    15.9575 </r>
       <r>   -12.2976     0.0000    16.0000 </r>
       <r>   -12.1967     0.0000    16.0000 </r>
       <r>   -12.0959     0.0000    16.0000 </r>
       <r>   -11.9951     0.0000    16.0000 </r>
       <r>   -11.8942     0.0000    16.0000 </r>
       <r>   -11.7934     0.0000    16.0000 </r>
       <r>   -11.6925     0.0000    16.0000 </r>
       <r>   -11.5917     0.0000    16.0000 </r>
       <r>   -11.4908     0.0000    16.0000 </r>
       <r>   -11.3900     0.0000    16.0000 </r>
       <r>   -11.2892     0.0000    16.0000 </r>
       <r>   -11.1883     0.0000    16.0000 </r>
       <r>   -11.0875     0.0000    16.0000 </r>
       <r>   -10.9866     0.0000    16.0000 </r>
       <r>   -10.8858     0.0000    16.0000 </r>
       <r>   -10.7850     0.0000    16.0000 </r>
       <r>   -10.6841     0.0000    16.0000 </r>
       <r>   -10.5833     0.0000    16.0000 </r>
       <r>   -10.4824     0.0000    16.0000 </r>
       <r>   -10.3816     0.0000    16.0000 </r>
       <r>   -10.2807     0.0000    16.0000 </r>
       <r>   -10.1799     0.0000    16.0000 </r>
       <r>   -10.0791     0.0000    16.0000 </r>
       <r>    -9.9782     0.0000    16.0000 </r>
       <r>    -9.8774     0.0000    16.0000 </r>
       <r>    -9.7765     0.0000    16.0000 </r>
       <r>    -9.6757     0.0000    16.0000 </r>
       <r>    -9.5749     0.0000    16.0000 </r>
       <r>    -9.4740     0.0000    16.0000 </r>
       <r>    -9.3732     0.0000    16.0000 </r>
       <r>    -9.2723     0.0000    16.0000 </r>
       <r>    -9.1715     0.0000    16.0000 </r>
       <r>    -9.0706     0.0000    16.0000 </r>
       <r>    -8.9698     0.0000    16.0000 </r>
       <r>    -8.8690     0.0000    16.0000 </r>
       <r>    -8.7681     0.0000    16.0000 </r>
       <r>    -8.6673     0.0000    16.0000 </r>
       <r>    -8.5664     0.0000    16.0000 </r>
       <r>    -8.4656     0.0000    16.0000 </r>
       <r>    -8.3648     0.0000    16.0000 </r>
       <r>    -8.2639     0.0000    16.0000 </r>
       <r>    -8.1631     0.0000    16.0000 </r>
       <r>    -8.0622     0.0000    16.0000 </r>
       <r>    -7.9614     0.0000    16.0000 </r>
       <r>    -7.8605     0.0000    16.0000 </r>
       <r>    -7.7597     0.0000    16.0000 </r>
       <r>    -7.6589     0.0000    16.0000 </r>
       <r>    -7.5580     0.0000    16.0000 </r>
       <r>    -7.4572     0.0000    16.0000 </r>
       <r>    -7.3563     0.0000    16.0000 </r>
       <r>    -7.2555     0.0000    16.0000 </r>
       <r>    -7.1547     0.0000    16.0000 </r>
       <r>    -7.0538     0.0003    16.0000 </r>
       <r>    -6.9530     9.7772    16.9926 </r>
       <r>    -6.8521    32.3674    20.6241 </r>
       <r>    -6.7513    23.3764    23.8507 </r>
       <r>    -6.6504    19.1579    26.4787 </r>
       <r>    -6.5496    17.1816    28.4727 </r>
       <r>    -6.4488    18.1890    30.5543 </r>
       <r>    -6.3479    19.7947    32.9162 </r>
       <r>    -6.2471    24.5220    35.7662 </r>
       <r>    -6.1462    25.1307    39.1143 </r>
       <r>    -6.0454     4.8258    40.0000 </r>
       <r>    -5.9446     0.0000    40.0000 </r>
       <r>    -5.8437     0.0000    40.0000 </r>
       <r>    -5.7429     0.0000    40.0000 </r>
       <r>    -5.6420     0.0000    40.0000 </r>
       <r>    -5.5412     0.0000    40.0000 </r>
       <r>    -5.4403     0.0000    40.0000 </r>
       <r>    -5.3395     0.0000    40.0000 </r>
       <r>    -5.2387     0.0000    40.0000 </r>
       <r>    -5.1378     0.0000    40.0000 </r>
       <r>    -5.0370     0.0000    40.0000 </r>
       <r>    -4.9361     0.0000    40.0000 </r>
       <r>    -4.8353     0.0000    40.0000 </r>
       <r>    -4.7345     0.0000    40.0000 </r>
       <r>    -4.6336     0.0000    40.0000 </r>
       <r>    -4.5328     0.0000    40.0000 </r>
       <r>    -4.4319     0.0000    40.0000 </r>
       <r>    -4.3311     0.0000    40.0000 </r>
       <r>    -4.2303     0.0000    40.0000 </r>
       <r>    -4.1294     0.0000    40.0000 </r>
       <r>    -4.0286     0.0000    40.0000 </r>
       <r>    -3.9277     0.0000    40.0000 </r>
       <r>    -3.8269     0.0000    40.0000 </r>
       <r>    -3.7260     0.0000    40.0000 </r>
       <r>    -3.6252     0.0000    40.0000 </r>
       <r>    -3.5244     0.0000    40.0000 </r>
       <r>    -3.4235     0.0000    40.0000 </r>
       <r>    -3.3227     0.0000    40.0000 </r>
       <r>    -3.2218     0.0000    40.0000 </r>
       <r>    -3.1210     0.0000    40.0000 </r>
       <r>    -3.0202     0.0000    40.0000 </r>
       <r>    -2.9193     0.0000    40.0000 </r>
       <r>    -2.8185     0.0000    40.0000 </r>
       <r>    -2.7176     0.0000    40.0000 </r>
       <r>    -2.6168     0.0000    40.0000 </r>
       <r>    -2.5159     0.0000    40.0000 </r>
       <r>    -2.4151     0.0000    40.0000 </r>
       <r>    -2.3143     0.0000    40.0000 </r>
       <r>    -2.2134     0.0000    40.0000 </r>
       <r>    -2.1126     0.0000    40.0000 </r>
       <r>    -2.0117     0.0000    40.0000 </r>
       <r>    -1.9109     0.0000    40.0000 </r>
       <r>    -1.8101     0.0000    40.0000 </r>
       <r>    -1.7092     0.0000    40.0000 </r>
       <r>    -1.6084     0.0000    40.0000 </r>
       <r>    -1.5075     0.2245    40.0226 </r>
       <r>    -1.4067     2.2949    40.2581 </r>
       <r>    -1.3058     5.9863    41.0037 </r>
       <r>    -1.2050    12.2300    42.3667 </r>
       <r>    -1.1042    20.3278    44.6766 </r>
       <r>    -1.0033    28.4361    47.9876 </r>
       <r>    -0.9025    14.6358    50.1560 </r>
       <r>    -0.8016    17.8808    52.3765 </r>
       <r>    -0.7008    19.8513    54.8553 </r>
       <r>    -0.6000    20.3120    57.5950 </r>
       <r>    -0.4991    46.6897    62.8951 </r>
       <r>    -0.3983     6.8660    63.9858 </r>
       <r>    -0.2974     0.0000    64.0000 </r>
       <r>    -0.1966     0.0000    64.0000 </r>
       <r>    -0.0957     0.0000    64.0000 </r>
       <r>     0.0051     0.0000    64.0000 </r>
       <r>     0.1059     0.0000    64.0000 </r>
       <r>     0.2068     0.0000    64.0000 </r>
       <r>     0.3076     0.0000    64.0000 </r>
       <r>     0.4085     0.0000    64.0000 </r>
       <r>     0.5093     0.0000    64.0000 </r>
       <r>     0.6101     0.0000    64.0000 </r>
       <r>     0.7110     0.0000    64.0000 </r>
       <r>     0.8118     0.0000    64.0000 </r>
       <r>     0.9127     0.0000    64.0000 </r>
       <r>     1.0135     0.0000    64.0000 </r>
       <r>     1.1144     0.0000    64.0000 </r>
       <r>     1.2152     0.0000    64.0000 </r>
       <r>     1.3160     0.0000    64.0000 </r>
       <r>     1.4169     0.0000    64.0000 </r>
       <r>     1.5177     0.0000    64.0000 </r>
       <r>     1.6186     0.0000    64.0000 </r>
       <r>     1.7194     0.0000    64.0000 </r>
       <r>     1.8202     0.0000    64.0000 </r>
       <r>     1.9211     0.0000    64.0000 </r>
       <r>     2.0219     0.0000    64.0000 </r>
       <r>     2.1228     0.0000    64.0000 </r>
       <r>     2.2236     0.0000    64.0000 </r>
       <r>     2.3245     0.0000    64.0000 </r>
       <r>     2.4253     0.0000    64.0000 </r>
       <r>     2.5261     0.0000    64.0000 </r>
       <r>     2.6270     0.0000    64.0000 </r>
       <r>     2.7278     0.0000    64.0000 </r>
       <r>     2.8287     0.0000    64.0000 </r>
       <r>     2.9295     0.0000    64.0000 </r>
       <r>     3.0303     0.0000    64.0000 </r>
       <r>     3.1312     0.0000    64.0000 </r>
       <r>     3.2320     0.0000    64.0000 </r>
       <r>     3.3329     0.0000    64.0000 </r>
       <r>     3.4337     0.0000    64.0000 </r>
       <r>     3.5346     0.0000    64.0000 </r>
       <r>     3.6354     0.0000    64.0000 </r>
       <r>     3.7362     0.0000    64.0000 </r>
       <r>     3.8371     0.0000    64.0000 </r>
       <r>     3.9379     0.0000    64.0000 </r>
       <r>     4.0388     0.0000    64.0000 </r>
       <r>     4.1396     0.0000    64.0000 </r>
       <r>     4.2404     0.0000    64.0000 </r>
       <r>     4.3413     0.0000    64.0000 </r>
       <r>     4.4421     0.0000    64.0000 </r>
       <r>     4.5430     0.0000    64.0000 </r>
       <r>     4.6438     0.0000    64.0000 </r>
       <r>     4.7447     0.0000    64.0000 </r>
       <r>     4.8455     0.0661    64.0067 </r>
       <r>     4.9463     0.0000    64.0067 </r>
       <r>     5.0472     0.6278    64.0700 </r>
       <r>     5.1480     0.5289    64.1267 </r>
       <r>     5.2489     1.4316    64.2710 </r>
       <r>     5.3497     1.1813    64.4325 </r>
       <r>     5.4505     1.7463    64.6761 </r>
       <r>     5.5514     1.2622    64.8540 </r>
       <r>     5.6522     2.7991    65.2156 </r>
       <r>     5.7531     4.5549    65.8393 </r>
       <r>     5.8539     5.1287    66.5105 </r>
       <r>     5.9547     8.5975    67.5803 </r>
       <r>     6.0556    10.2127    68.7299 </r>
       <r>     6.1564     8.3770    69.8248 </r>
       <r>     6.2573     7.7308    70.9330 </r>
       <r>     6.3581     6.1244    71.7709 </r>
       <r>     6.4590     6.8880    72.6880 </r>
       <r>     6.5598     9.2207    73.7899 </r>
       <r>     6.6606     8.1752    74.8844 </r>
       <r>     6.7615     8.1429    75.9745 </r>
       <r>     6.8623     7.3412    76.9937 </r>
       <r>     6.9632     7.1148    77.9242 </r>
       <r>     7.0640     2.3112    78.2797 </r>
       <r>     7.1648     3.1930    78.6753 </r>
       <r>     7.2657     2.9485    79.1107 </r>
       <r>     7.3665     2.5606    79.4049 </r>
       <r>     7.4674     2.1116    79.6263 </r>
       <r>     7.5682     0.6708    79.7210 </r>
       <r>     7.6691     1.2614    79.8872 </r>
       <r>     7.7699     0.5288    80.0000 </r>
       <r>     7.8707     0.0000    80.0000 </r>
       <r>     7.9716     0.0000    80.0000 </r>
       <r>     8.0724     0.0000    80.0000 </r>
       <r>     8.1733     0.0000    80.0000 </r>
       <r>     8.2741     0.0000    80.0000 </r>
       <r>     8.3749     0.0000    80.0000 </r>
       <r>     8.4758     0.0000    80.0000 </r>
       <r>     8.5766     0.0000    80.0000 </r>
       <r>     8.6775     0.0000    80.0000 </r>
       <r>     8.7783     0.0000    80.0000 </r>
       <r>     8.8792     0.0000    80.0000 </r>
       <r>     8.9800     0.0000    80.0000 </r>
       <r>     9.0808     0.0000    80.0000 </r>
      </set>
     </set>
    </array>
   </total>
  </dos>
 </calculation>
 <structure name="finalpos" >
  <crystal>
   <varray name="basis" >
    <v>       8.28739668       0.00000000       0.00000000 </v>
    <v>      -4.14369834       8.28739668       0.00000000 </v>
    <v>       0.00000000       0.00000000       4.14369834 </v>
   </varray>
   <i name="volume">    284.59311253 </i>
   <varray name="rec_basis" >
    <v>       0.12066515       0.06033258      -0.00000000 </v>
    <v>       0.00000000       0.12066515       0.00000000 </v>
    <v>      -0.00000000      -0.00000000       0.24133031 </v>
   </varray>
  </crystal>
  <varray name="positions" >
   <v>       0.00000000       0.00000000       0.00000000 </v>
   <v>       0.50000000       0.00000000       0.00000000 </v>
   <v>       0.25000000       0.50000000       0.00000000 </v>
   <v>       0.75000000       0.50000000       0.00000000 </v>
   <v>       0.37500000       0.25098523       0.50098523 </v>
   <v>       0.87500000       0.25000000       0.50000000 </v>
   <v>       0.62500000       0.75000000       0.50000000 </v>
   <v>       0.12500000       0.75000000       0.50000000 </v>
  </varray>
 </structure>
</modeling>
