<?xml version="1.0" encoding="ISO-8859-1"?>
<modeling>
 <generator>
  <i name="program" type="string">vasp </i>
  <i name="version" type="string">6.4.3  </i>
  <i name="subversion" type="string">19Mar24 (build Jun 20 2024 15:56:09) complex                          parallel </i>
  <i name="platform" type="string">LinuxNV_CrayMPICH </i>
  <i name="date" type="string">2025 01 13 </i>
  <i name="time" type="string">18:21:17 </i>
 </generator>
 <incar>
  <i type="string" name="PREC">Accurate</i>
  <i type="int" name="IBRION">    -1</i>
  <i name="EDIFF">      0.00000001</i>
  <i type="int" name="NSW">     0</i>
  <i name="ENCUT">    500.00000000</i>
  <i type="logical" name="LREAL"> F  </i>
  <i type="int" name="ISMEAR">     0</i>
  <i name="SIGMA">      0.01000000</i>
  <i type="logical" name="LWAVE"> F  </i>
  <i type="logical" name="LCHARG"> F  </i>
 </incar>
 <primitive_cell>
  <structure name="primitive_cell" >
   <crystal>
    <varray name="basis" >
     <v>       2.72185119      -2.72185119       0.00000000 </v>
     <v>       2.72185119       0.00000000       2.72185119 </v>
     <v>       0.00000000      -2.72185119       2.72185119 </v>
    </varray>
    <i name="volume">     40.32952685 </i>
    <varray name="rec_basis" >
     <v>       0.18369851      -0.18369851      -0.18369851 </v>
     <v>       0.18369851       0.18369851       0.18369851 </v>
     <v>      -0.18369851      -0.18369851       0.18369851 </v>
    </varray>
   </crystal>
   <varray name="positions" >
    <v>       0.00000000       0.00000000       0.00000000 </v>
    <v>       0.75000000       0.75000000       0.75000000 </v>
   </varray>
  </structure>
  <varray name="primitive_index" >
   <v type="int" >        1 </v>
   <v type="int" >        6 </v>
  </varray>
 </primitive_cell>
 <kpoints>
  <generation param="Gamma">
   <v type="int" name="divisions">       6        7       11 </v>
   <v name="usershift">      0.00000000       0.00000000       0.00000000 </v>
   <v name="genvec1">      0.16666667      -0.00000000      -0.00000000 </v>
   <v name="genvec2">     -0.00000000       0.14285714       0.00000000 </v>
   <v name="genvec3">      0.00000000      -0.00000000       0.09090909 </v>
   <v name="shift">      0.00000000       0.00000000       0.00000000 </v>
  </generation>
  <varray name="kpointlist" >
   <v>       0.00000000       0.00000000       0.00000000 </v>
   <v>       0.16666667       0.00000000       0.00000000 </v>
   <v>       0.33333333       0.00000000       0.00000000 </v>
   <v>       0.50000000       0.00000000       0.00000000 </v>
   <v>       0.00000000       0.14285714       0.00000000 </v>
   <v>       0.16666667       0.14285714       0.00000000 </v>
   <v>       0.33333333       0.14285714       0.00000000 </v>
   <v>       0.50000000       0.14285714       0.00000000 </v>
   <v>      -0.33333333       0.14285714       0.00000000 </v>
   <v>      -0.16666667       0.14285714       0.00000000 </v>
   <v>       0.00000000       0.28571429       0.00000000 </v>
   <v>       0.16666667       0.28571429       0.00000000 </v>
   <v>       0.33333333       0.28571429       0.00000000 </v>
   <v>       0.50000000       0.28571429       0.00000000 </v>
   <v>      -0.33333333       0.28571429       0.00000000 </v>
   <v>      -0.16666667       0.28571429       0.00000000 </v>
   <v>       0.00000000       0.42857143       0.00000000 </v>
   <v>       0.16666667       0.42857143       0.00000000 </v>
   <v>       0.33333333       0.42857143       0.00000000 </v>
   <v>       0.50000000       0.42857143       0.00000000 </v>
   <v>      -0.33333333       0.42857143       0.00000000 </v>
   <v>      -0.16666667       0.42857143       0.00000000 </v>
   <v>       0.00000000       0.00000000       0.09090909 </v>
   <v>       0.16666667       0.00000000       0.09090909 </v>
   <v>       0.33333333       0.00000000       0.09090909 </v>
   <v>       0.50000000       0.00000000       0.09090909 </v>
   <v>      -0.33333333       0.00000000       0.09090909 </v>
   <v>      -0.16666667       0.00000000       0.09090909 </v>
   <v>       0.00000000       0.14285714       0.09090909 </v>
   <v>       0.16666667       0.14285714       0.09090909 </v>
   <v>       0.33333333       0.14285714       0.09090909 </v>
   <v>       0.50000000       0.14285714       0.09090909 </v>
   <v>      -0.33333333       0.14285714       0.09090909 </v>
   <v>      -0.16666667       0.14285714       0.09090909 </v>
   <v>       0.00000000       0.28571429       0.09090909 </v>
   <v>       0.16666667       0.28571429       0.09090909 </v>
   <v>       0.33333333       0.28571429       0.09090909 </v>
   <v>       0.50000000       0.28571429       0.09090909 </v>
   <v>      -0.33333333       0.28571429       0.09090909 </v>
   <v>      -0.16666667       0.28571429       0.09090909 </v>
   <v>       0.00000000       0.42857143       0.09090909 </v>
   <v>       0.16666667       0.42857143       0.09090909 </v>
   <v>       0.33333333       0.42857143       0.09090909 </v>
   <v>       0.50000000       0.42857143       0.09090909 </v>
   <v>      -0.33333333       0.42857143       0.09090909 </v>
   <v>      -0.16666667       0.42857143       0.09090909 </v>
   <v>       0.00000000      -0.42857143       0.09090909 </v>
   <v>       0.16666667      -0.42857143       0.09090909 </v>
   <v>       0.33333333      -0.42857143       0.09090909 </v>
   <v>       0.50000000      -0.42857143       0.09090909 </v>
   <v>      -0.33333333      -0.42857143       0.09090909 </v>
   <v>      -0.16666667      -0.42857143       0.09090909 </v>
   <v>       0.00000000      -0.28571429       0.09090909 </v>
   <v>       0.16666667      -0.28571429       0.09090909 </v>
   <v>       0.33333333      -0.28571429       0.09090909 </v>
   <v>       0.50000000      -0.28571429       0.09090909 </v>
   <v>      -0.33333333      -0.28571429       0.09090909 </v>
   <v>      -0.16666667      -0.28571429       0.09090909 </v>
   <v>       0.00000000      -0.14285714       0.09090909 </v>
   <v>       0.16666667      -0.14285714       0.09090909 </v>
   <v>       0.33333333      -0.14285714       0.09090909 </v>
   <v>       0.50000000      -0.14285714       0.09090909 </v>
   <v>      -0.33333333      -0.14285714       0.09090909 </v>
   <v>      -0.16666667      -0.14285714       0.09090909 </v>
   <v>       0.00000000       0.00000000       0.18181818 </v>
   <v>       0.16666667       0.00000000       0.18181818 </v>
   <v>       0.33333333       0.00000000       0.18181818 </v>
   <v>       0.50000000       0.00000000       0.18181818 </v>
   <v>      -0.33333333       0.00000000       0.18181818 </v>
   <v>      -0.16666667       0.00000000       0.18181818 </v>
   <v>       0.00000000       0.14285714       0.18181818 </v>
   <v>       0.16666667       0.14285714       0.18181818 </v>
   <v>       0.33333333       0.14285714       0.18181818 </v>
   <v>       0.50000000       0.14285714       0.18181818 </v>
   <v>      -0.33333333       0.14285714       0.18181818 </v>
   <v>      -0.16666667       0.14285714       0.18181818 </v>
   <v>       0.00000000       0.28571429       0.18181818 </v>
   <v>       0.16666667       0.28571429       0.18181818 </v>
   <v>       0.33333333       0.28571429       0.18181818 </v>
   <v>       0.50000000       0.28571429       0.18181818 </v>
   <v>      -0.33333333       0.28571429       0.18181818 </v>
   <v>      -0.16666667       0.28571429       0.18181818 </v>
   <v>       0.00000000       0.42857143       0.18181818 </v>
   <v>       0.16666667       0.42857143       0.18181818 </v>
   <v>       0.33333333       0.42857143       0.18181818 </v>
   <v>       0.50000000       0.42857143       0.18181818 </v>
   <v>      -0.33333333       0.42857143       0.18181818 </v>
   <v>      -0.16666667       0.42857143       0.18181818 </v>
   <v>       0.00000000      -0.42857143       0.18181818 </v>
   <v>       0.16666667      -0.42857143       0.18181818 </v>
   <v>       0.33333333      -0.42857143       0.18181818 </v>
   <v>       0.50000000      -0.42857143       0.18181818 </v>
   <v>      -0.33333333      -0.42857143       0.18181818 </v>
   <v>      -0.16666667      -0.42857143       0.18181818 </v>
   <v>       0.00000000      -0.28571429       0.18181818 </v>
   <v>       0.16666667      -0.28571429       0.18181818 </v>
   <v>       0.33333333      -0.28571429       0.18181818 </v>
   <v>       0.50000000      -0.28571429       0.18181818 </v>
   <v>      -0.33333333      -0.28571429       0.18181818 </v>
   <v>      -0.16666667      -0.28571429       0.18181818 </v>
   <v>       0.00000000      -0.14285714       0.18181818 </v>
   <v>       0.16666667      -0.14285714       0.18181818 </v>
   <v>       0.33333333      -0.14285714       0.18181818 </v>
   <v>       0.50000000      -0.14285714       0.18181818 </v>
   <v>      -0.33333333      -0.14285714       0.18181818 </v>
   <v>      -0.16666667      -0.14285714       0.18181818 </v>
   <v>       0.00000000       0.00000000       0.27272727 </v>
   <v>       0.16666667       0.00000000       0.27272727 </v>
   <v>       0.33333333       0.00000000       0.27272727 </v>
   <v>       0.50000000       0.00000000       0.27272727 </v>
   <v>      -0.33333333       0.00000000       0.27272727 </v>
   <v>      -0.16666667       0.00000000       0.27272727 </v>
   <v>       0.00000000       0.14285714       0.27272727 </v>
   <v>       0.16666667       0.14285714       0.27272727 </v>
   <v>       0.33333333       0.14285714       0.27272727 </v>
   <v>       0.50000000       0.14285714       0.27272727 </v>
   <v>      -0.33333333       0.14285714       0.27272727 </v>
   <v>      -0.16666667       0.14285714       0.27272727 </v>
   <v>       0.00000000       0.28571429       0.27272727 </v>
   <v>       0.16666667       0.28571429       0.27272727 </v>
   <v>       0.33333333       0.28571429       0.27272727 </v>
   <v>       0.50000000       0.28571429       0.27272727 </v>
   <v>      -0.33333333       0.28571429       0.27272727 </v>
   <v>      -0.16666667       0.28571429       0.27272727 </v>
   <v>       0.00000000       0.42857143       0.27272727 </v>
   <v>       0.16666667       0.42857143       0.27272727 </v>
   <v>       0.33333333       0.42857143       0.27272727 </v>
   <v>       0.50000000       0.42857143       0.27272727 </v>
   <v>      -0.33333333       0.42857143       0.27272727 </v>
   <v>      -0.16666667       0.42857143       0.27272727 </v>
   <v>       0.00000000      -0.42857143       0.27272727 </v>
   <v>       0.16666667      -0.42857143       0.27272727 </v>
   <v>       0.33333333      -0.42857143       0.27272727 </v>
   <v>       0.50000000      -0.42857143       0.27272727 </v>
   <v>      -0.33333333      -0.42857143       0.27272727 </v>
   <v>      -0.16666667      -0.42857143       0.27272727 </v>
   <v>       0.00000000      -0.28571429       0.27272727 </v>
   <v>       0.16666667      -0.28571429       0.27272727 </v>
   <v>       0.33333333      -0.28571429       0.27272727 </v>
   <v>       0.50000000      -0.28571429       0.27272727 </v>
   <v>      -0.33333333      -0.28571429       0.27272727 </v>
   <v>      -0.16666667      -0.28571429       0.27272727 </v>
   <v>       0.00000000      -0.14285714       0.27272727 </v>
   <v>       0.16666667      -0.14285714       0.27272727 </v>
   <v>       0.33333333      -0.14285714       0.27272727 </v>
   <v>       0.50000000      -0.14285714       0.27272727 </v>
   <v>      -0.33333333      -0.14285714       0.27272727 </v>
   <v>      -0.16666667      -0.14285714       0.27272727 </v>
   <v>       0.00000000       0.00000000       0.36363636 </v>
   <v>       0.16666667       0.00000000       0.36363636 </v>
   <v>       0.33333333       0.00000000       0.36363636 </v>
   <v>       0.50000000       0.00000000       0.36363636 </v>
   <v>      -0.33333333       0.00000000       0.36363636 </v>
   <v>      -0.16666667       0.00000000       0.36363636 </v>
   <v>       0.00000000       0.14285714       0.36363636 </v>
   <v>       0.16666667       0.14285714       0.36363636 </v>
   <v>       0.33333333       0.14285714       0.36363636 </v>
   <v>       0.50000000       0.14285714       0.36363636 </v>
   <v>      -0.33333333       0.14285714       0.36363636 </v>
   <v>      -0.16666667       0.14285714       0.36363636 </v>
   <v>       0.00000000       0.28571429       0.36363636 </v>
   <v>       0.16666667       0.28571429       0.36363636 </v>
   <v>       0.33333333       0.28571429       0.36363636 </v>
   <v>       0.50000000       0.28571429       0.36363636 </v>
   <v>      -0.33333333       0.28571429       0.36363636 </v>
   <v>      -0.16666667       0.28571429       0.36363636 </v>
   <v>       0.00000000       0.42857143       0.36363636 </v>
   <v>       0.16666667       0.42857143       0.36363636 </v>
   <v>       0.33333333       0.42857143       0.36363636 </v>
   <v>       0.50000000       0.42857143       0.36363636 </v>
   <v>      -0.33333333       0.42857143       0.36363636 </v>
   <v>      -0.16666667       0.42857143       0.36363636 </v>
   <v>       0.00000000      -0.42857143       0.36363636 </v>
   <v>       0.16666667      -0.42857143       0.36363636 </v>
   <v>       0.33333333      -0.42857143       0.36363636 </v>
   <v>       0.50000000      -0.42857143       0.36363636 </v>
   <v>      -0.33333333      -0.42857143       0.36363636 </v>
   <v>      -0.16666667      -0.42857143       0.36363636 </v>
   <v>       0.00000000      -0.28571429       0.36363636 </v>
   <v>       0.16666667      -0.28571429       0.36363636 </v>
   <v>       0.33333333      -0.28571429       0.36363636 </v>
   <v>       0.50000000      -0.28571429       0.36363636 </v>
   <v>      -0.33333333      -0.28571429       0.36363636 </v>
   <v>      -0.16666667      -0.28571429       0.36363636 </v>
   <v>       0.00000000      -0.14285714       0.36363636 </v>
   <v>       0.16666667      -0.14285714       0.36363636 </v>
   <v>       0.33333333      -0.14285714       0.36363636 </v>
   <v>       0.50000000      -0.14285714       0.36363636 </v>
   <v>      -0.33333333      -0.14285714       0.36363636 </v>
   <v>      -0.16666667      -0.14285714       0.36363636 </v>
   <v>       0.00000000       0.00000000       0.45454545 </v>
   <v>       0.16666667       0.00000000       0.45454545 </v>
   <v>       0.33333333       0.00000000       0.45454545 </v>
   <v>       0.50000000       0.00000000       0.45454545 </v>
   <v>      -0.33333333       0.00000000       0.45454545 </v>
   <v>      -0.16666667       0.00000000       0.45454545 </v>
   <v>       0.00000000       0.14285714       0.45454545 </v>
   <v>       0.16666667       0.14285714       0.45454545 </v>
   <v>       0.33333333       0.14285714       0.45454545 </v>
   <v>       0.50000000       0.14285714       0.45454545 </v>
   <v>      -0.33333333       0.14285714       0.45454545 </v>
   <v>      -0.16666667       0.14285714       0.45454545 </v>
   <v>       0.00000000       0.28571429       0.45454545 </v>
   <v>       0.16666667       0.28571429       0.45454545 </v>
   <v>       0.33333333       0.28571429       0.45454545 </v>
   <v>       0.50000000       0.28571429       0.45454545 </v>
   <v>      -0.33333333       0.28571429       0.45454545 </v>
   <v>      -0.16666667       0.28571429       0.45454545 </v>
   <v>       0.00000000       0.42857143       0.45454545 </v>
   <v>       0.16666667       0.42857143       0.45454545 </v>
   <v>       0.33333333       0.42857143       0.45454545 </v>
   <v>       0.50000000       0.42857143       0.45454545 </v>
   <v>      -0.33333333       0.42857143       0.45454545 </v>
   <v>      -0.16666667       0.42857143       0.45454545 </v>
   <v>       0.00000000      -0.42857143       0.45454545 </v>
   <v>       0.16666667      -0.42857143       0.45454545 </v>
   <v>       0.33333333      -0.42857143       0.45454545 </v>
   <v>       0.50000000      -0.42857143       0.45454545 </v>
   <v>      -0.33333333      -0.42857143       0.45454545 </v>
   <v>      -0.16666667      -0.42857143       0.45454545 </v>
   <v>       0.00000000      -0.28571429       0.45454545 </v>
   <v>       0.16666667      -0.28571429       0.45454545 </v>
   <v>       0.33333333      -0.28571429       0.45454545 </v>
   <v>       0.50000000      -0.28571429       0.45454545 </v>
   <v>      -0.33333333      -0.28571429       0.45454545 </v>
   <v>      -0.16666667      -0.28571429       0.45454545 </v>
   <v>       0.00000000      -0.14285714       0.45454545 </v>
   <v>       0.16666667      -0.14285714       0.45454545 </v>
   <v>       0.33333333      -0.14285714       0.45454545 </v>
   <v>       0.50000000      -0.14285714       0.45454545 </v>
   <v>      -0.33333333      -0.14285714       0.45454545 </v>
   <v>      -0.16666667      -0.14285714       0.45454545 </v>
  </varray>
  <varray name="weights" >
   <v>       0.00216450 </v>
   <v>       0.00432900 </v>
   <v>       0.00432900 </v>
   <v>       0.00216450 </v>
   <v>       0.00432900 </v>
   <v>       0.00432900 </v>
   <v>       0.00432900 </v>
   <v>       0.00432900 </v>
   <v>       0.00432900 </v>
   <v>       0.00432900 </v>
   <v>       0.00432900 </v>
   <v>       0.00432900 </v>
   <v>       0.00432900 </v>
   <v>       0.00432900 </v>
   <v>       0.00432900 </v>
   <v>       0.00432900 </v>
   <v>       0.00432900 </v>
   <v>       0.00432900 </v>
   <v>       0.00432900 </v>
   <v>       0.00432900 </v>
   <v>       0.00432900 </v>
   <v>       0.00432900 </v>
   <v>       0.00432900 </v>
   <v>       0.00432900 </v>
   <v>       0.00432900 </v>
   <v>       0.00432900 </v>
   <v>       0.00432900 </v>
   <v>       0.00432900 </v>
   <v>       0.00432900 </v>
   <v>       0.00432900 </v>
   <v>       0.00432900 </v>
   <v>       0.00432900 </v>
   <v>       0.00432900 </v>
   <v>       0.00432900 </v>
   <v>       0.00432900 </v>
   <v>       0.00432900 </v>
   <v>       0.00432900 </v>
   <v>       0.00432900 </v>
   <v>       0.00432900 </v>
   <v>       0.00432900 </v>
   <v>       0.00432900 </v>
   <v>       0.00432900 </v>
   <v>       0.00432900 </v>
   <v>       0.00432900 </v>
   <v>       0.00432900 </v>
   <v>       0.00432900 </v>
   <v>       0.00432900 </v>
   <v>       0.00432900 </v>
   <v>       0.00432900 </v>
   <v>       0.00432900 </v>
   <v>       0.00432900 </v>
   <v>       0.00432900 </v>
   <v>       0.00432900 </v>
   <v>       0.00432900 </v>
   <v>       0.00432900 </v>
   <v>       0.00432900 </v>
   <v>       0.00432900 </v>
   <v>       0.00432900 </v>
   <v>       0.00432900 </v>
   <v>       0.00432900 </v>
   <v>       0.00432900 </v>
   <v>       0.00432900 </v>
   <v>       0.00432900 </v>
   <v>       0.00432900 </v>
   <v>       0.00432900 </v>
   <v>       0.00432900 </v>
   <v>       0.00432900 </v>
   <v>       0.00432900 </v>
   <v>       0.00432900 </v>
   <v>       0.00432900 </v>
   <v>       0.00432900 </v>
   <v>       0.00432900 </v>
   <v>       0.00432900 </v>
   <v>       0.00432900 </v>
   <v>       0.00432900 </v>
   <v>       0.00432900 </v>
   <v>       0.00432900 </v>
   <v>       0.00432900 </v>
   <v>       0.00432900 </v>
   <v>       0.00432900 </v>
   <v>       0.00432900 </v>
   <v>       0.00432900 </v>
   <v>       0.00432900 </v>
   <v>       0.00432900 </v>
   <v>       0.00432900 </v>
   <v>       0.00432900 </v>
   <v>       0.00432900 </v>
   <v>       0.00432900 </v>
   <v>       0.00432900 </v>
   <v>       0.00432900 </v>
   <v>       0.00432900 </v>
   <v>       0.00432900 </v>
   <v>       0.00432900 </v>
   <v>       0.00432900 </v>
   <v>       0.00432900 </v>
   <v>       0.00432900 </v>
   <v>       0.00432900 </v>
   <v>       0.00432900 </v>
   <v>       0.00432900 </v>
   <v>       0.00432900 </v>
   <v>       0.00432900 </v>
   <v>       0.00432900 </v>
   <v>       0.00432900 </v>
   <v>       0.00432900 </v>
   <v>       0.00432900 </v>
   <v>       0.00432900 </v>
   <v>       0.00432900 </v>
   <v>       0.00432900 </v>
   <v>       0.00432900 </v>
   <v>       0.00432900 </v>
   <v>       0.00432900 </v>
   <v>       0.00432900 </v>
   <v>       0.00432900 </v>
   <v>       0.00432900 </v>
   <v>       0.00432900 </v>
   <v>       0.00432900 </v>
   <v>       0.00432900 </v>
   <v>       0.00432900 </v>
   <v>       0.00432900 </v>
   <v>       0.00432900 </v>
   <v>       0.00432900 </v>
   <v>       0.00432900 </v>
   <v>       0.00432900 </v>
   <v>       0.00432900 </v>
   <v>       0.00432900 </v>
   <v>       0.00432900 </v>
   <v>       0.00432900 </v>
   <v>       0.00432900 </v>
   <v>       0.00432900 </v>
   <v>       0.00432900 </v>
   <v>       0.00432900 </v>
   <v>       0.00432900 </v>
   <v>       0.00432900 </v>
   <v>       0.00432900 </v>
   <v>       0.00432900 </v>
   <v>       0.00432900 </v>
   <v>       0.00432900 </v>
   <v>       0.00432900 </v>
   <v>       0.00432900 </v>
   <v>       0.00432900 </v>
   <v>       0.00432900 </v>
   <v>       0.00432900 </v>
   <v>       0.00432900 </v>
   <v>       0.00432900 </v>
   <v>       0.00432900 </v>
   <v>       0.00432900 </v>
   <v>       0.00432900 </v>
   <v>       0.00432900 </v>
   <v>       0.00432900 </v>
   <v>       0.00432900 </v>
   <v>       0.00432900 </v>
   <v>       0.00432900 </v>
   <v>       0.00432900 </v>
   <v>       0.00432900 </v>
   <v>       0.00432900 </v>
   <v>       0.00432900 </v>
   <v>       0.00432900 </v>
   <v>       0.00432900 </v>
   <v>       0.00432900 </v>
   <v>       0.00432900 </v>
   <v>       0.00432900 </v>
   <v>       0.00432900 </v>
   <v>       0.00432900 </v>
   <v>       0.00432900 </v>
   <v>       0.00432900 </v>
   <v>       0.00432900 </v>
   <v>       0.00432900 </v>
   <v>       0.00432900 </v>
   <v>       0.00432900 </v>
   <v>       0.00432900 </v>
   <v>       0.00432900 </v>
   <v>       0.00432900 </v>
   <v>       0.00432900 </v>
   <v>       0.00432900 </v>
   <v>       0.00432900 </v>
   <v>       0.00432900 </v>
   <v>       0.00432900 </v>
   <v>       0.00432900 </v>
   <v>       0.00432900 </v>
   <v>       0.00432900 </v>
   <v>       0.00432900 </v>
   <v>       0.00432900 </v>
   <v>       0.00432900 </v>
   <v>       0.00432900 </v>
   <v>       0.00432900 </v>
   <v>       0.00432900 </v>
   <v>       0.00432900 </v>
   <v>       0.00432900 </v>
   <v>       0.00432900 </v>
   <v>       0.00432900 </v>
   <v>       0.00432900 </v>
   <v>       0.00432900 </v>
   <v>       0.00432900 </v>
   <v>       0.00432900 </v>
   <v>       0.00432900 </v>
   <v>       0.00432900 </v>
   <v>       0.00432900 </v>
   <v>       0.00432900 </v>
   <v>       0.00432900 </v>
   <v>       0.00432900 </v>
   <v>       0.00432900 </v>
   <v>       0.00432900 </v>
   <v>       0.00432900 </v>
   <v>       0.00432900 </v>
   <v>       0.00432900 </v>
   <v>       0.00432900 </v>
   <v>       0.00432900 </v>
   <v>       0.00432900 </v>
   <v>       0.00432900 </v>
   <v>       0.00432900 </v>
   <v>       0.00432900 </v>
   <v>       0.00432900 </v>
   <v>       0.00432900 </v>
   <v>       0.00432900 </v>
   <v>       0.00432900 </v>
   <v>       0.00432900 </v>
   <v>       0.00432900 </v>
   <v>       0.00432900 </v>
   <v>       0.00432900 </v>
   <v>       0.00432900 </v>
   <v>       0.00432900 </v>
   <v>       0.00432900 </v>
   <v>       0.00432900 </v>
   <v>       0.00432900 </v>
   <v>       0.00432900 </v>
   <v>       0.00432900 </v>
   <v>       0.00432900 </v>
   <v>       0.00432900 </v>
   <v>       0.00432900 </v>
   <v>       0.00432900 </v>
   <v>       0.00432900 </v>
   <v>       0.00432900 </v>
  </varray>
 </kpoints>
 <parameters>
  <separator name="general" >
   <i type="string" name="SYSTEM">unknown system</i>
   <i type="logical" name="LCOMPAT"> F  </i>
  </separator>
  <separator name="electronic" >
   <i type="string" name="PREC">accura</i>
   <i name="ENMAX">    500.00000000</i>
   <i name="ENAUG">    322.06900000</i>
   <i name="EDIFF">      0.00000001</i>
   <i type="int" name="IALGO">    38</i>
   <i type="int" name="IWAVPR">    10</i>
   <i type="int" name="NBANDS">    24</i>
   <i type="int" name="NBANDSLOW">    -1</i>
   <i type="int" name="NBANDSHIGH">    -1</i>
   <i name="NELECT">     32.00000000</i>
   <i type="int" name="TURBO">     0</i>
   <i type="int" name="IRESTART">     0</i>
   <i type="int" name="NREBOOT">     0</i>
   <i type="int" name="NMIN">     0</i>
   <i name="EREF">      0.00000000</i>
   <separator name="electronic smearing" >
    <i type="int" name="ISMEAR">     0</i>
    <i name="SIGMA">      0.01000000</i>
    <i name="KSPACING">      0.50000000</i>
    <i type="logical" name="KGAMMA"> T  </i>
    <i type="logical" name="KBLOWUP"> F  </i>
   </separator>
   <separator name="electronic projectors" >
    <i type="logical" name="LREAL"> F  </i>
    <v name="ROPT">      0.00000000</v>
    <i type="int" name="LMAXPAW">  -100</i>
    <i type="int" name="LMAXMIX">     2</i>
    <i type="logical" name="NLSPLINE"> F  </i>
   </separator>
   <separator name="electronic startup" >
    <i type="int" name="ISTART">     0</i>
    <i type="int" name="ICHARG">     2</i>
    <i type="int" name="INIWAV">     1</i>
   </separator>
   <separator name="electronic spin" >
    <i type="int" name="ISPIN">     1</i>
    <i type="logical" name="LNONCOLLINEAR"> F  </i>
    <v name="MAGMOM">      1.00000000      1.00000000      1.00000000      1.00000000      1.00000000      1.00000000      1.00000000      1.00000000</v>
    <i name="NUPDOWN">     -1.00000000</i>
    <i type="logical" name="LSORBIT"> F  </i>
    <v name="SAXIS">      0.00000000      0.00000000      1.00000000</v>
    <i type="logical" name="LSPIRAL"> F  </i>
    <v name="QSPIRAL">      0.00000000      0.00000000      0.00000000</v>
    <i type="logical" name="LZEROZ"> F  </i>
   </separator>
   <separator name="electronic exchange-correlation" >
    <i type="logical" name="LASPH"> F  </i>
   </separator>
   <separator name="electronic convergence" >
    <i type="int" name="NELM">    60</i>
    <i type="int" name="NELMDL">    -5</i>
    <i type="int" name="NELMIN">     2</i>
    <i name="ENINI">    500.00000000</i>
    <separator name="electronic convergence detail" >
     <i type="logical" name="LDIAG"> T  </i>
     <i type="logical" name="LSUBROT"> F  </i>
     <i name="WEIMIN">      0.00000000</i>
     <i name="EBREAK">      0.00000000</i>
     <i name="DEPER">      0.30000000</i>
     <i type="int" name="NRMM">     4</i>
     <i name="TIME">      0.40000000</i>
    </separator>
   </separator>
   <separator name="electronic mixer" >
    <i name="AMIX">      0.40000000</i>
    <i name="BMIX">      1.00000000</i>
    <i name="AMIN">      0.10000000</i>
    <i name="AMIX_MAG">      1.60000000</i>
    <i name="BMIX_MAG">      1.00000000</i>
    <separator name="electronic mixer details" >
     <i type="int" name="IMIX">     4</i>
     <i type="logical" name="MIXFIRST"> F  </i>
     <i type="int" name="MAXMIX">   -45</i>
     <i name="WC">    100.00000000</i>
     <i type="int" name="INIMIX">     1</i>
     <i type="int" name="MIXPRE">     1</i>
     <i type="int" name="MREMOVE">     5</i>
    </separator>
   </separator>
   <separator name="electronic dipolcorrection" >
    <i type="logical" name="LDIPOL"> F  </i>
    <i type="logical" name="LMONO"> F  </i>
    <i type="int" name="IDIPOL">     0</i>
    <i name="EPSILON">      1.00000000</i>
    <v name="DIPOL">   -100.00000000   -100.00000000   -100.00000000</v>
    <i name="EFIELD">      0.00000000</i>
    <i type="logical" name="LVACPOTAV"> F  </i>
   </separator>
  </separator>
  <separator name="grids" >
   <i type="int" name="NGX">    50</i>
   <i type="int" name="NGY">    50</i>
   <i type="int" name="NGZ">    28</i>
   <i type="int" name="NGXF">   100</i>
   <i type="int" name="NGYF">   100</i>
   <i type="int" name="NGZF">    56</i>
   <i type="logical" name="ADDGRID"> F  </i>
  </separator>
  <separator name="ionic" >
   <i type="int" name="NSW">     0</i>
   <i type="int" name="IBRION">    -1</i>
   <i type="int" name="MDALGO">     0</i>
   <i type="int" name="ISIF">     2</i>
   <i name="PSTRESS">      0.00000000</i>
   <i name="EDIFFG">      0.00000010</i>
   <i type="int" name="NFREE">     0</i>
   <i name="POTIM">      0.50000000</i>
   <i name="SMASS">     -3.00000000</i>
   <i name="SCALEE">      1.00000000</i>
  </separator>
  <separator name="ionic md" >
   <i name="TEBEG">      0.00010000</i>
   <i name="TEEND">      0.00010000</i>
   <i type="int" name="NBLOCK">     1</i>
   <i type="int" name="KBLOCK">     1</i>
   <i type="int" name="NPACO">   256</i>
   <i name="APACO">     10.00000000</i>
  </separator>
  <separator name="symmetry" >
   <i type="int" name="ISYM">     2</i>
   <i name="SYMPREC">      0.00001000</i>
  </separator>
  <separator name="dos" >
   <i type="int" name="LORBIT">     0</i>
   <v name="RWIGS">     -1.00000000</v>
   <i type="int" name="NEDOS">   301</i>
   <i name="EMIN">     10.00000000</i>
   <i name="EMAX">    -10.00000000</i>
   <i name="EFERMI">      0.00000000</i>
  </separator>
  <separator name="writing" >
   <i type="int" name="NWRITE">     2</i>
   <i type="logical" name="LWAVE"> F  </i>
   <i type="logical" name="LDOWNSAMPLE"> F  </i>
   <i type="logical" name="LCHARG"> F  </i>
   <i type="logical" name="LPARD"> F  </i>
   <i type="logical" name="LVTOT"> F  </i>
   <i type="logical" name="LVHAR"> F  </i>
   <i type="logical" name="LELF"> F  </i>
   <i type="logical" name="LOPTICS"> F  </i>
   <v name="STM">      0.00000000      0.00000000      0.00000000      0.00000000      0.00000000      0.00000000      0.00000000</v>
  </separator>
  <separator name="performance" >
   <i type="int" name="NPAR">     8</i>
   <i type="int" name="NSIM">     4</i>
   <i type="int" name="NBLK">    -1</i>
   <i type="logical" name="LPLANE"> T  </i>
   <i type="logical" name="LSCALAPACK"> T  </i>
   <i type="logical" name="LSCAAWARE"> F  </i>
   <i type="logical" name="LSCALU"> F  </i>
   <i type="logical" name="LASYNC"> F  </i>
   <i type="logical" name="LORBITALREAL"> F  </i>
  </separator>
  <separator name="miscellaneous" >
   <i type="int" name="IDIOT">     3</i>
   <i type="int" name="PHON_NSTRUCT">    -1</i>
   <i type="logical" name="LMUSIC"> F  </i>
   <v name="POMASS">     28.08500000</v>
   <v name="DARWINR">      0.00000000</v>
   <v name="DARWINV">      1.00000000</v>
   <i type="logical" name="LCORR"> T  </i>
  </separator>
  <i type="logical" name="GGA_COMPAT"> T  </i>
  <i type="logical" name="LBERRY"> F  </i>
  <i type="int" name="ICORELEVEL">     0</i>
  <i type="logical" name="LDAU"> F  </i>
  <i type="int" name="I_CONSTRAINED_M">     0</i>
  <separator name="electronic exchange-correlation" >
   <i type="string" name="GGA    ">PE</i>
   <i type="string" name="XC_C">1</i>
   <i type="int" name="VOSKOWN">     0</i>
   <i type="logical" name="LHFCALC"> F  </i>
   <i type="string" name="PRECFOCK"></i>
   <i type="logical" name="LSYMGRAD"> F  </i>
   <i type="logical" name="LHFONE"> F  </i>
   <i type="logical" name="LRHFCALC"> F  </i>
   <i type="logical" name="LTHOMAS"> F  </i>
   <i type="logical" name="LMODELHF"> F  </i>
   <i type="logical" name="LFOCKACE"> F  </i>
   <i name="ENCUT4O">     -1.00000000</i>
   <i type="int" name="EXXOEP">     0</i>
   <i type="int" name="FOURORBIT">     0</i>
   <i name="AEXX">      0.00000000</i>
   <i name="HFALPHA">      0.00000000</i>
   <i name="MCALPHA">      0.00000000</i>
   <i name="ALDAX">      1.00000000</i>
   <i name="AGGAX">      1.00000000</i>
   <i name="AMGGAX">      1.00000000</i>
   <i name="ALDAC">      1.00000000</i>
   <i name="AGGAC">      1.00000000</i>
   <i name="AMGGAC">      1.00000000</i>
   <i type="int" name="NKREDX">     1</i>
   <i type="int" name="NKREDY">     1</i>
   <i type="int" name="NKREDZ">     1</i>
   <i type="logical" name="SHIFTRED"> F  </i>
   <i type="logical" name="ODDONLY"> F  </i>
   <i type="logical" name="EVENONLY"> F  </i>
   <i type="int" name="LMAXFOCK">     0</i>
   <i type="int" name="NMAXFOCKAE">     0</i>
   <i type="logical" name="LFOCKAEDFT"> F  </i>
   <i name="HFSCREEN">      0.00000000</i>
   <i name="HFSCREENC">      0.00000000</i>
   <i type="int" name="NBANDSGWLOW">     0</i>
  </separator>
  <separator name="vdW DFT" >
   <i type="logical" name="LUSE_VDW"> F  </i>
   <i type="int" name="IVDW_NL">    -1</i>
   <i type="logical" name="LSPIN_VDW"> F  </i>
   <i name="ZAB_VDW">     -0.84910000</i>
   <i name="GAMMA_VDW">      1.39626340</i>
   <i name="ALPHA_VDW">      0.00000000</i>
   <i name="PARAM1">      0.12340000</i>
   <i name="PARAM2">      1.00000000</i>
   <i name="BPARAM">      6.30000000</i>
   <i name="CPARAM">      0.00930000</i>
  </separator>
  <separator name="model GW" >
   <i type="int" name="MODEL_GW">     0</i>
   <i name="MODEL_EPS0">     12.09885805</i>
   <i name="MODEL_ALPHA">      1.00000000</i>
  </separator>
  <separator name="linear response parameters" >
   <i type="logical" name="LEPSILON"> F  </i>
   <i type="logical" name="LRPA"> F  </i>
   <i type="logical" name="LNABLA"> F  </i>
   <i type="logical" name="LVEL"> F  </i>
   <i name="CSHIFT">      0.10000000</i>
   <i name="OMEGAMAX">     -1.00000000</i>
   <i name="DEG_THRESHOLD">      0.00200000</i>
   <i name="RTIME">     -0.10000000</i>
   <i name="WPLASMAI">      0.00000000</i>
   <v name="DFIELD">      0.00000000      0.00000000      0.00000000</v>
   <v name="WPLASMA">      0.00000000      0.00000000      0.00000000      0.00000000      0.00000000      0.00000000      0.00000000      0.00000000      0.00000000</v>
  </separator>
  <separator name="orbital magnetization" >
   <i type="logical" name="NUCIND"> F  </i>
   <v name="MAGPOS">      0.00000000      0.00000000      0.00000000</v>
   <i type="logical" name="LNICSALL"> T  </i>
   <i type="logical" name="ORBITALMAG"> F  </i>
   <i type="logical" name="LMAGBLOCH"> F  </i>
   <i type="logical" name="LCHIMAG"> F  </i>
   <i type="logical" name="LGAUGE"> T  </i>
   <i type="int" name="MAGATOM">     0</i>
   <v name="MAGDIPOL">      0.00000000      0.00000000      0.00000000</v>
   <v name="AVECCONST">      0.00000000      0.00000000      0.00000000</v>
  </separator>
  <separator name="response functions" >
   <i type="logical" name="LALL_IN_ONE"> F  </i>
   <i type="int" name="IALL_IN_ONE">    -1</i>
   <i type="int" name="NBANDS_WAVE">    -1</i>
   <i type="logical" name="LFINITE_TEMPERATURE"> F  </i>
   <i type="logical" name="LADDER"> F  </i>
   <i type="logical" name="LRPAFORCE"> F  </i>
   <i type="logical" name="LFXC"> F  </i>
   <i type="logical" name="LHARTREE"> T  </i>
   <i type="int" name="IBSE">     0</i>
   <v type="int" name="KPOINT">    -1     0     0     0</v>
   <i type="logical" name="LTCTC"> F  </i>
   <i type="logical" name="LTCTE"> F  </i>
   <i type="logical" name="LTETE"> F  </i>
   <i type="logical" name="LTRIPLET"> F  </i>
   <i type="logical" name="LFXCEPS"> F  </i>
   <i type="logical" name="LFXHEG"> F  </i>
   <i type="int" name="NATURALO">     2</i>
   <i type="logical" name="LHOLEGF"> F  </i>
   <i type="logical" name="L2ORDER"> F  </i>
   <i type="logical" name="LDMP1"> F  </i>
   <i type="logical" name="LMP2LT"> F  </i>
   <i type="logical" name="LSMP2LT"> F  </i>
   <i type="logical" name="LGWLF"> F  </i>
   <i name="ENCUTGW">     -1.60000002</i>
   <i name="ENCUTGWSOFT">     -1.60000002</i>
   <i name="ENCUTLF">     -1.00000000</i>
   <i type="logical" name="ESF_SPLINES"> F  </i>
   <i name="ESF_CONV">      0.01000000</i>
   <i type="int" name="ESF_NINTER">    15</i>
   <i type="int" name="LMAXMP2">    -1</i>
   <i name="SCISSOR">      0.00000000</i>
   <i type="int" name="NOMEGA">     0</i>
   <i type="int" name="NOMEGAR">     0</i>
   <i type="int" name="NBANDSGW">    -1</i>
   <i type="int" name="NBANDSO">    -1</i>
   <i type="int" name="NBANDSV">    -1</i>
   <i type="int" name="NELMGW">     1</i>
   <i type="int" name="NELMHF">     1</i>
   <i type="int" name="DIM">     3</i>
   <i type="int" name="IESPILON">     4</i>
   <i type="int" name="ANTIRES">     0</i>
   <i name="OMEGAMAX">    -30.00000000</i>
   <i name="OMEGAMIN">    -30.00000000</i>
   <i name="OMEGATL">   -200.00000000</i>
   <i type="int" name="OMEGAGRID">     0</i>
   <i name="CSHIFT">     -0.10000000</i>
   <i type="logical" name="LSELFENERGY"> F  </i>
   <i type="logical" name="LSPECTRAL"> F  </i>
   <i type="logical" name="LSPECTRALGW"> F  </i>
   <i type="logical" name="LSINGLES"> F  </i>
   <i type="logical" name="LFERMIGW"> F  </i>
   <i type="logical" name="ODDONLYGW"> F  </i>
   <i type="logical" name="EVENONLYGW"> F  </i>
   <i type="int" name="NKREDLFX">     1</i>
   <i type="int" name="NKREDLFY">     1</i>
   <i type="int" name="NKREDLFZ">     1</i>
   <i type="int" name="MAXMEM">  2800</i>
   <i type="int" name="TELESCOPE">     0</i>
   <i type="int" name="NTAUPAR">    -1</i>
   <i type="int" name="NOMEGAPAR">    -1</i>
   <i name="DAMP_NEWTON">      0.80000001</i>
   <i name="LAMBDA">      1.00000000</i>
  </separator>
  <separator name="External order field" >
   <i name="OFIELD_KAPPA">      0.00000000</i>
   <v name="OFIELD_K">      0.00000000      0.00000000      0.00000000</v>
   <i name="OFIELD_Q6_NEAR">      0.00000000</i>
   <i name="OFIELD_Q6_FAR">      0.00000000</i>
   <i name="OFIELD_A">      0.00000000</i>
  </separator>
  <separator name="optional k-points parameters" >
   <i type="int" name="KPOINTS_OPT_MODE">     1</i>
   <i type="logical" name="LKPOINTS_OPT"> F  </i>
  </separator>
 </parameters>
 <atominfo>
  <atoms>       8 </atoms>
  <types>       1 </types>
  <array name="atoms" >
   <dimension dim="1">ion</dimension>
   <field type="string">element</field>
   <field type="int">atomtype</field>
   <set>
    <rc><c>Si</c><c>   1</c></rc>
    <rc><c>Si</c><c>   1</c></rc>
    <rc><c>Si</c><c>   1</c></rc>
    <rc><c>Si</c><c>   1</c></rc>
    <rc><c>Si</c><c>   1</c></rc>
    <rc><c>Si</c><c>   1</c></rc>
    <rc><c>Si</c><c>   1</c></rc>
    <rc><c>Si</c><c>   1</c></rc>
   </set>
  </array>
  <array name="atomtypes" >
   <dimension dim="1">type</dimension>
   <field type="int">atomspertype</field>
   <field type="string">element</field>
   <field>mass</field>
   <field>valence</field>
   <field type="string">pseudopotential</field>
   <set>
    <rc><c>   8</c><c>Si</c><c>     28.08500000</c><c>      4.00000000</c><c>  PAW_PBE Si 05Jan2001                  </c></rc>
   </set>
  </array>
 </atominfo>
 <structure name="initialpos" >
  <crystal>
   <varray name="basis" >
    <v>      -2.72185119       2.72185119       5.44370237 </v>
    <v>       2.72185119      -5.44370237       2.72185119 </v>
    <v>       2.72185119       2.72185119       0.00000000 </v>
   </varray>
   <i name="volume">    161.31810740 </i>
   <varray name="rec_basis" >
    <v>      -0.04592463       0.04592463       0.13777388 </v>
    <v>       0.09184925      -0.09184925       0.09184925 </v>
    <v>       0.22962313       0.13777388       0.04592463 </v>
   </varray>
  </crystal>
  <varray name="positions" >
   <v>       0.00000000       0.00000000       0.00000000 </v>
   <v>       0.50000000       0.00000000       0.50000000 </v>
   <v>       0.25000000       0.50000000       0.75000000 </v>
   <v>       0.75000000       0.50000000       0.25000000 </v>
   <v>       0.18750000       0.12500000       0.56250000 </v>
   <v>       0.68750000       0.12500000       0.06250000 </v>
   <v>       0.43750000       0.62500000       0.31250000 </v>
   <v>       0.93750000       0.62500000       0.81250000 </v>
  </varray>
 </structure>
 <calculation>
  <scstep>
   <time name="dav">    1.20    1.20</time>
   <time name="total">    1.21    1.21</time>
   <energy>
    <i name="alphaZ">     13.35522965 </i>
    <i name="ewald">   -911.95285847 </i>
    <i name="hartreedc">    -44.45938125 </i>
    <i name="XCdc">    -74.52614932 </i>
    <i name="pawpsdc">    704.99039692 </i>
    <i name="pawaedc">   -564.24414232 </i>
    <i name="eentropy">     -0.00009937 </i>
    <i name="bandstr">    119.31789534 </i>
    <i name="atom">    824.53005375 </i>
    <i name="e_fr_energy">     67.01094493 </i>
    <i name="e_wo_entrp">     67.01104430 </i>
    <i name="e_0_energy">     67.01099461 </i>
   </energy>
  </scstep>
  <scstep>
   <time name="dav">    1.43    1.43</time>
   <time name="total">    1.43    1.43</time>
   <energy>
    <i name="e_fr_energy">    -38.88554207 </i>
    <i name="e_wo_entrp">    -38.88554207 </i>
    <i name="e_0_energy">    -38.88554207 </i>
   </energy>
  </scstep>
  <scstep>
   <time name="dav">    1.43    1.44</time>
   <time name="total">    1.43    1.44</time>
   <energy>
    <i name="e_fr_energy">    -44.00063722 </i>
    <i name="e_wo_entrp">    -44.00063722 </i>
    <i name="e_0_energy">    -44.00063722 </i>
   </energy>
  </scstep>
  <scstep>
   <time name="dav">    1.37    1.37</time>
   <time name="total">    1.37    1.37</time>
   <energy>
    <i name="e_fr_energy">    -44.09171980 </i>
    <i name="e_wo_entrp">    -44.09171980 </i>
    <i name="e_0_energy">    -44.09171980 </i>
   </energy>
  </scstep>
  <scstep>
   <time name="dav">    1.44    1.45</time>
   <time name="total">    1.50    1.50</time>
   <energy>
    <i name="e_fr_energy">    -44.09407536 </i>
    <i name="e_wo_entrp">    -44.09407536 </i>
    <i name="e_0_energy">    -44.09407536 </i>
   </energy>
  </scstep>
  <scstep>
   <time name="dav">    1.33    1.33</time>
   <time name="total">    1.40    1.41</time>
   <energy>
    <i name="e_fr_energy">    -43.60751742 </i>
    <i name="e_wo_entrp">    -43.60751742 </i>
    <i name="e_0_energy">    -43.60751742 </i>
   </energy>
  </scstep>
  <scstep>
   <time name="dav">    1.35    1.35</time>
   <time name="total">    1.42    1.42</time>
   <energy>
    <i name="e_fr_energy">    -43.38562828 </i>
    <i name="e_wo_entrp">    -43.38562828 </i>
    <i name="e_0_energy">    -43.38562828 </i>
   </energy>
  </scstep>
  <scstep>
   <time name="dav">    1.35    1.36</time>
   <time name="total">    1.42    1.43</time>
   <energy>
    <i name="e_fr_energy">    -43.38964470 </i>
    <i name="e_wo_entrp">    -43.38964470 </i>
    <i name="e_0_energy">    -43.38964470 </i>
   </energy>
  </scstep>
  <scstep>
   <time name="dav">    1.42    1.42</time>
   <time name="total">    1.49    1.50</time>
   <energy>
    <i name="e_fr_energy">    -43.39047737 </i>
    <i name="e_wo_entrp">    -43.39047737 </i>
    <i name="e_0_energy">    -43.39047737 </i>
   </energy>
  </scstep>
  <scstep>
   <time name="dav">    1.34    1.34</time>
   <time name="total">    1.41    1.41</time>
   <energy>
    <i name="e_fr_energy">    -43.39070302 </i>
    <i name="e_wo_entrp">    -43.39070302 </i>
    <i name="e_0_energy">    -43.39070302 </i>
   </energy>
  </scstep>
  <scstep>
   <time name="dav">    1.41    1.41</time>
   <time name="total">    1.48    1.49</time>
   <energy>
    <i name="e_fr_energy">    -43.39070395 </i>
    <i name="e_wo_entrp">    -43.39070395 </i>
    <i name="e_0_energy">    -43.39070395 </i>
   </energy>
  </scstep>
  <scstep>
   <time name="dav">    1.37    1.37</time>
   <time name="total">    1.45    1.45</time>
   <energy>
    <i name="e_fr_energy">    -43.39070529 </i>
    <i name="e_wo_entrp">    -43.39070529 </i>
    <i name="e_0_energy">    -43.39070529 </i>
   </energy>
  </scstep>
  <scstep>
   <time name="dav">    1.38    1.38</time>
   <time name="total">    1.46    1.46</time>
   <energy>
    <i name="e_fr_energy">    -43.39070449 </i>
    <i name="e_wo_entrp">    -43.39070449 </i>
    <i name="e_0_energy">    -43.39070449 </i>
   </energy>
  </scstep>
  <scstep>
   <time name="dav">    1.16    1.16</time>
   <time name="total">    1.23    1.24</time>
   <energy>
    <i name="e_fr_energy">    -43.39070454 </i>
    <i name="e_wo_entrp">    -43.39070454 </i>
    <i name="e_0_energy">    -43.39070454 </i>
   </energy>
  </scstep>
  <scstep>
   <time name="dav">    1.12    1.12</time>
   <time name="total">    1.19    1.19</time>
   <energy>
    <i name="e_fr_energy">    -43.39070458 </i>
    <i name="e_wo_entrp">    -43.39070458 </i>
    <i name="e_0_energy">    -43.39070458 </i>
   </energy>
  </scstep>
  <scstep>
   <time name="dav">    1.08    1.09</time>
   <time name="total">    1.16    1.16</time>
   <energy>
    <i name="e_fr_energy">    -43.39070457 </i>
    <i name="e_wo_entrp">    -43.39070457 </i>
    <i name="e_0_energy">    -43.39070457 </i>
   </energy>
  </scstep>
  <scstep>
   <time name="dav">    1.06    1.06</time>
   <time name="total">    1.08    1.09</time>
   <energy>
    <i name="alphaZ">     13.35522965 </i>
    <i name="ewald">   -911.95285847 </i>
    <i name="hartreedc">    -60.02685449 </i>
    <i name="XCdc">    -71.99036710 </i>
    <i name="pawpsdc">   3421.40274782 </i>
    <i name="pawaedc">  -3281.52595348 </i>
    <i name="eentropy">     -0.00000000 </i>
    <i name="bandstr">     22.81729776 </i>
    <i name="atom">    824.53005375 </i>
    <i name="e_fr_energy">    -43.39070457 </i>
    <i name="e_wo_entrp">    -43.39070457 </i>
    <i name="e_0_energy">    -43.39070457 </i>
   </energy>
  </scstep>
  <structure>
   <crystal>
    <varray name="basis" >
     <v>      -2.72185119       2.72185119       5.44370237 </v>
     <v>       2.72185119      -5.44370237       2.72185119 </v>
     <v>       2.72185119       2.72185119       0.00000000 </v>
    </varray>
    <i name="volume">    161.31810740 </i>
    <varray name="rec_basis" >
     <v>      -0.04592463       0.04592463       0.13777388 </v>
     <v>       0.09184925      -0.09184925       0.09184925 </v>
     <v>       0.22962313       0.13777388       0.04592463 </v>
    </varray>
   </crystal>
   <varray name="positions" >
    <v>       0.00000000       0.00000000       0.00000000 </v>
    <v>       0.50000000       0.00000000       0.50000000 </v>
    <v>       0.25000000       0.50000000       0.75000000 </v>
    <v>       0.75000000       0.50000000       0.25000000 </v>
    <v>       0.18750000       0.12500000       0.56250000 </v>
    <v>       0.68750000       0.12500000       0.06250000 </v>
    <v>       0.43750000       0.62500000       0.31250000 </v>
    <v>       0.93750000       0.62500000       0.81250000 </v>
   </varray>
  </structure>
  <varray name="forces" >
   <v>       0.00000440      -0.00000440       0.00004765 </v>
   <v>       0.00000440      -0.00000440       0.00004765 </v>
   <v>       0.00000440      -0.00000440       0.00004765 </v>
   <v>       0.00000440      -0.00000440       0.00004765 </v>
   <v>      -0.00000440       0.00000440      -0.00004765 </v>
   <v>      -0.00000440       0.00000440      -0.00004765 </v>
   <v>      -0.00000440       0.00000440      -0.00004765 </v>
   <v>      -0.00000440       0.00000440      -0.00004765 </v>
  </varray>
  <varray name="stress" >
   <v>      12.53266652       0.01089864      -0.00034692 </v>
   <v>       0.01089864      12.53266652       0.00034692 </v>
   <v>      -0.00034694       0.00034694      12.50672519 </v>
  </varray>
  <energy>
   <i name="e_fr_energy">    -43.39070457 </i>
   <i name="e_wo_entrp">    -43.39070457 </i>
   <i name="e_0_energy">    -43.39070457 </i>
  </energy>
  <time name="totalsc">   24.03   24.13</time>
  <eigenvalues>
   <array>
    <dimension dim="1">band</dimension>
    <dimension dim="2">kpoint</dimension>
    <dimension dim="3">spin</dimension>
    <field>eigene</field>
    <field>occ</field>
    <set>
     <set comment="spin 1">
      <set comment="kpoint 1">
       <r>   -6.1548    1.0000 </r>
       <r>   -3.8417    1.0000 </r>
       <r>   -3.4555    1.0000 </r>
       <r>   -3.4555    1.0000 </r>
       <r>   -1.1786    1.0000 </r>
       <r>   -0.6063    1.0000 </r>
       <r>   -0.6063    1.0000 </r>
       <r>    2.2461    1.0000 </r>
       <r>    2.2461    1.0000 </r>
       <r>    3.5659    1.0000 </r>
       <r>    3.5659    1.0000 </r>
       <r>    4.5629    1.0000 </r>
       <r>    4.5629    1.0000 </r>
       <r>    5.7533    1.0000 </r>
       <r>    5.7533    1.0000 </r>
       <r>    5.7533    1.0000 </r>
       <r>    7.2686    0.0000 </r>
       <r>    7.2820    0.0000 </r>
       <r>    7.2820    0.0000 </r>
       <r>    8.3161    0.0000 </r>
       <r>    8.3162    0.0000 </r>
       <r>    8.3162    0.0000 </r>
       <r>    9.0445    0.0000 </r>
       <r>    9.0973    0.0000 </r>
      </set>
      <set comment="kpoint 2">
       <r>   -6.0718    1.0000 </r>
       <r>   -4.1871    1.0000 </r>
       <r>   -3.7724    1.0000 </r>
       <r>   -2.8952    1.0000 </r>
       <r>   -1.1225    1.0000 </r>
       <r>   -1.1028    1.0000 </r>
       <r>    0.2628    1.0000 </r>
       <r>    1.6395    1.0000 </r>
       <r>    2.9914    1.0000 </r>
       <r>    3.5462    1.0000 </r>
       <r>    3.7246    1.0000 </r>
       <r>    3.9208    1.0000 </r>
       <r>    4.4453    1.0000 </r>
       <r>    5.0772    1.0000 </r>
       <r>    5.4910    1.0000 </r>
       <r>    5.5934    1.0000 </r>
       <r>    7.2172    0.0000 </r>
       <r>    7.4846    0.0000 </r>
       <r>    7.7819    0.0000 </r>
       <r>    8.2345    0.0000 </r>
       <r>    8.5706    0.0000 </r>
       <r>    8.6683    0.0000 </r>
       <r>    9.0649    0.0000 </r>
       <r>    9.3808    0.0000 </r>
      </set>
      <set comment="kpoint 3">
       <r>   -5.8244    1.0000 </r>
       <r>   -4.8637    1.0000 </r>
       <r>   -3.5691    1.0000 </r>
       <r>   -2.9140    1.0000 </r>
       <r>   -0.9949    1.0000 </r>
       <r>   -0.9794    1.0000 </r>
       <r>    1.3309    1.0000 </r>
       <r>    1.3785    1.0000 </r>
       <r>    2.7822    1.0000 </r>
       <r>    3.6582    1.0000 </r>
       <r>    3.7733    1.0000 </r>
       <r>    3.8291    1.0000 </r>
       <r>    4.0217    1.0000 </r>
       <r>    4.1732    1.0000 </r>
       <r>    4.9669    1.0000 </r>
       <r>    5.1531    1.0000 </r>
       <r>    7.3287    0.0000 </r>
       <r>    7.7208    0.0000 </r>
       <r>    7.9377    0.0000 </r>
       <r>    8.0642    0.0000 </r>
       <r>    8.9596    0.0000 </r>
       <r>    9.4248    0.0000 </r>
       <r>    9.8030    0.0000 </r>
       <r>    9.8061    0.0000 </r>
      </set>
      <set comment="kpoint 4">
       <r>   -5.4179    1.0000 </r>
       <r>   -5.4179    1.0000 </r>
       <r>   -3.2537    1.0000 </r>
       <r>   -3.2537    1.0000 </r>
       <r>   -0.8618    1.0000 </r>
       <r>   -0.8618    1.0000 </r>
       <r>    1.7915    1.0000 </r>
       <r>    1.7915    1.0000 </r>
       <r>    2.5377    1.0000 </r>
       <r>    2.5377    1.0000 </r>
       <r>    3.8817    1.0000 </r>
       <r>    3.8817    1.0000 </r>
       <r>    4.4462    1.0000 </r>
       <r>    4.4462    1.0000 </r>
       <r>    4.5180    1.0000 </r>
       <r>    4.5180    1.0000 </r>
       <r>    7.6030    0.0000 </r>
       <r>    7.6030    0.0000 </r>
       <r>    7.9017    0.0000 </r>
       <r>    7.9017    0.0000 </r>
       <r>    9.4357    0.0000 </r>
       <r>    9.4357    0.0000 </r>
       <r>   10.2082    0.0000 </r>
       <r>   10.2082    0.0000 </r>
      </set>
      <set comment="kpoint 5">
       <r>   -6.0883    1.0000 </r>
       <r>   -4.0949    1.0000 </r>
       <r>   -3.6567    1.0000 </r>
       <r>   -3.1644    1.0000 </r>
       <r>   -0.8002    1.0000 </r>
       <r>   -0.7808    1.0000 </r>
       <r>   -0.7347    1.0000 </r>
       <r>    2.1205    1.0000 </r>
       <r>    2.8620    1.0000 </r>
       <r>    3.2619    1.0000 </r>
       <r>    3.9285    1.0000 </r>
       <r>    4.5993    1.0000 </r>
       <r>    4.5993    1.0000 </r>
       <r>    5.0882    1.0000 </r>
       <r>    5.6459    1.0000 </r>
       <r>    5.6459    1.0000 </r>
       <r>    6.8847    0.0000 </r>
       <r>    7.3106    0.0000 </r>
       <r>    7.7293    0.0000 </r>
       <r>    8.3659    0.0000 </r>
       <r>    8.4741    0.0000 </r>
       <r>    8.4741    0.0000 </r>
       <r>    8.7032    0.0000 </r>
       <r>    9.1373    0.0000 </r>
      </set>
      <set comment="kpoint 6">
       <r>   -5.9796    1.0000 </r>
       <r>   -4.2885    1.0000 </r>
       <r>   -4.1070    1.0000 </r>
       <r>   -2.4577    1.0000 </r>
       <r>   -1.4571    1.0000 </r>
       <r>   -0.6166    1.0000 </r>
       <r>   -0.0399    1.0000 </r>
       <r>    1.6455    1.0000 </r>
       <r>    3.2650    1.0000 </r>
       <r>    3.6335    1.0000 </r>
       <r>    3.8836    1.0000 </r>
       <r>    4.0936    1.0000 </r>
       <r>    4.6042    1.0000 </r>
       <r>    4.7085    1.0000 </r>
       <r>    5.1990    1.0000 </r>
       <r>    5.2669    1.0000 </r>
       <r>    6.8761    0.0000 </r>
       <r>    7.8440    0.0000 </r>
       <r>    7.9239    0.0000 </r>
       <r>    7.9946    0.0000 </r>
       <r>    8.9934    0.0000 </r>
       <r>    9.0772    0.0000 </r>
       <r>    9.2056    0.0000 </r>
       <r>    9.3062    0.0000 </r>
      </set>
      <set comment="kpoint 7">
       <r>   -5.7061    1.0000 </r>
       <r>   -4.9144    1.0000 </r>
       <r>   -3.9762    1.0000 </r>
       <r>   -2.6316    1.0000 </r>
       <r>   -1.2879    1.0000 </r>
       <r>   -0.3691    1.0000 </r>
       <r>    0.9764    1.0000 </r>
       <r>    1.5223    1.0000 </r>
       <r>    2.7242    1.0000 </r>
       <r>    3.4050    1.0000 </r>
       <r>    3.8015    1.0000 </r>
       <r>    4.3812    1.0000 </r>
       <r>    4.3885    1.0000 </r>
       <r>    4.4184    1.0000 </r>
       <r>    4.6257    1.0000 </r>
       <r>    4.6299    1.0000 </r>
       <r>    7.0413    0.0000 </r>
       <r>    7.5143    0.0000 </r>
       <r>    8.0759    0.0000 </r>
       <r>    8.1552    0.0000 </r>
       <r>    9.0990    0.0000 </r>
       <r>    9.8506    0.0000 </r>
       <r>    9.9450    0.0000 </r>
       <r>    9.9767    0.0000 </r>
      </set>
      <set comment="kpoint 8">
       <r>   -5.4337    1.0000 </r>
       <r>   -5.2722    1.0000 </r>
       <r>   -3.7243    1.0000 </r>
       <r>   -3.1744    1.0000 </r>
       <r>   -0.9707    1.0000 </r>
       <r>   -0.2365    1.0000 </r>
       <r>    1.8069    1.0000 </r>
       <r>    1.9902    1.0000 </r>
       <r>    2.1640    1.0000 </r>
       <r>    2.5851    1.0000 </r>
       <r>    3.6652    1.0000 </r>
       <r>    4.0707    1.0000 </r>
       <r>    4.1000    1.0000 </r>
       <r>    4.1786    1.0000 </r>
       <r>    4.7966    1.0000 </r>
       <r>    5.0026    1.0000 </r>
       <r>    7.2073    0.0000 </r>
       <r>    7.3798    0.0000 </r>
       <r>    7.9241    0.0000 </r>
       <r>    8.0595    0.0000 </r>
       <r>    8.9523    0.0000 </r>
       <r>    9.3647    0.0000 </r>
       <r>    9.5662    0.0000 </r>
       <r>   10.8339    0.0000 </r>
      </set>
      <set comment="kpoint 9">
       <r>   -5.8109    1.0000 </r>
       <r>   -4.6872    1.0000 </r>
       <r>   -3.6234    1.0000 </r>
       <r>   -3.4218    1.0000 </r>
       <r>   -0.9054    1.0000 </r>
       <r>   -0.5822    1.0000 </r>
       <r>    1.3753    1.0000 </r>
       <r>    1.6723    1.0000 </r>
       <r>    2.9553    1.0000 </r>
       <r>    3.4334    1.0000 </r>
       <r>    3.4541    1.0000 </r>
       <r>    3.6841    1.0000 </r>
       <r>    3.9870    1.0000 </r>
       <r>    4.0094    1.0000 </r>
       <r>    5.2687    1.0000 </r>
       <r>    5.3591    1.0000 </r>
       <r>    7.0797    0.0000 </r>
       <r>    7.7115    0.0000 </r>
       <r>    7.8084    0.0000 </r>
       <r>    8.1126    0.0000 </r>
       <r>    8.6968    0.0000 </r>
       <r>    8.8749    0.0000 </r>
       <r>    9.0039    0.0000 </r>
       <r>    9.8384    0.0000 </r>
      </set>
      <set comment="kpoint 10">
       <r>   -6.0314    1.0000 </r>
       <r>   -3.9697    1.0000 </r>
       <r>   -3.9334    1.0000 </r>
       <r>   -3.2979    1.0000 </r>
       <r>   -0.9938    1.0000 </r>
       <r>   -0.8869    1.0000 </r>
       <r>    0.2538    1.0000 </r>
       <r>    2.1575    1.0000 </r>
       <r>    2.7549    1.0000 </r>
       <r>    3.4018    1.0000 </r>
       <r>    3.8958    1.0000 </r>
       <r>    4.0434    1.0000 </r>
       <r>    4.3633    1.0000 </r>
       <r>    4.7051    1.0000 </r>
       <r>    5.4077    1.0000 </r>
       <r>    5.6559    1.0000 </r>
       <r>    6.9930    0.0000 </r>
       <r>    7.6417    0.0000 </r>
       <r>    7.7996    0.0000 </r>
       <r>    8.3911    0.0000 </r>
       <r>    8.4496    0.0000 </r>
       <r>    8.4883    0.0000 </r>
       <r>    8.6567    0.0000 </r>
       <r>    9.0093    0.0000 </r>
      </set>
      <set comment="kpoint 11">
       <r>   -5.8903    1.0000 </r>
       <r>   -4.6081    1.0000 </r>
       <r>   -3.7788    1.0000 </r>
       <r>   -2.7791    1.0000 </r>
       <r>   -1.1888    1.0000 </r>
       <r>   -1.0148    1.0000 </r>
       <r>    0.0865    1.0000 </r>
       <r>    2.4548    1.0000 </r>
       <r>    3.0474    1.0000 </r>
       <r>    3.7031    1.0000 </r>
       <r>    3.8272    1.0000 </r>
       <r>    4.2871    1.0000 </r>
       <r>    4.7081    1.0000 </r>
       <r>    4.7081    1.0000 </r>
       <r>    5.3991    1.0000 </r>
       <r>    5.3991    1.0000 </r>
       <r>    6.6037    0.0000 </r>
       <r>    7.4353    0.0000 </r>
       <r>    7.4433    0.0000 </r>
       <r>    7.9158    0.0000 </r>
       <r>    8.1751    0.0000 </r>
       <r>    8.8339    0.0000 </r>
       <r>    8.8339    0.0000 </r>
       <r>    9.1063    0.0000 </r>
      </set>
      <set comment="kpoint 12">
       <r>   -5.7567    1.0000 </r>
       <r>   -4.6350    1.0000 </r>
       <r>   -4.2767    1.0000 </r>
       <r>   -2.1880    1.0000 </r>
       <r>   -1.7829    1.0000 </r>
       <r>   -0.4010    1.0000 </r>
       <r>    0.3236    1.0000 </r>
       <r>    2.0734    1.0000 </r>
       <r>    3.0777    1.0000 </r>
       <r>    3.5126    1.0000 </r>
       <r>    3.9389    1.0000 </r>
       <r>    4.3493    1.0000 </r>
       <r>    4.4333    1.0000 </r>
       <r>    4.8283    1.0000 </r>
       <r>    4.8934    1.0000 </r>
       <r>    5.0946    1.0000 </r>
       <r>    6.6567    0.0000 </r>
       <r>    7.7191    0.0000 </r>
       <r>    7.9821    0.0000 </r>
       <r>    7.9955    0.0000 </r>
       <r>    8.1081    0.0000 </r>
       <r>    8.9378    0.0000 </r>
       <r>    9.0160    0.0000 </r>
       <r>    9.2982    0.0000 </r>
      </set>
      <set comment="kpoint 13">
       <r>   -5.4587    1.0000 </r>
       <r>   -4.8396    1.0000 </r>
       <r>   -4.5107    1.0000 </r>
       <r>   -2.9340    1.0000 </r>
       <r>   -0.9825    1.0000 </r>
       <r>    0.5696    1.0000 </r>
       <r>    0.5704    1.0000 </r>
       <r>    1.9622    1.0000 </r>
       <r>    2.8059    1.0000 </r>
       <r>    2.9861    1.0000 </r>
       <r>    3.2483    1.0000 </r>
       <r>    4.3237    1.0000 </r>
       <r>    4.3339    1.0000 </r>
       <r>    4.6945    1.0000 </r>
       <r>    4.7226    1.0000 </r>
       <r>    4.7926    1.0000 </r>
       <r>    6.8669    0.0000 </r>
       <r>    7.4218    0.0000 </r>
       <r>    7.5730    0.0000 </r>
       <r>    8.4300    0.0000 </r>
       <r>    8.8466    0.0000 </r>
       <r>    9.1812    0.0000 </r>
       <r>    9.3695    0.0000 </r>
       <r>    9.7110    0.0000 </r>
      </set>
      <set comment="kpoint 14">
       <r>   -5.3197    1.0000 </r>
       <r>   -4.9999    1.0000 </r>
       <r>   -4.2535    1.0000 </r>
       <r>   -3.5817    1.0000 </r>
       <r>   -0.4324    1.0000 </r>
       <r>    0.4470    1.0000 </r>
       <r>    1.7373    1.0000 </r>
       <r>    2.0681    1.0000 </r>
       <r>    2.1615    1.0000 </r>
       <r>    2.3490    1.0000 </r>
       <r>    3.5456    1.0000 </r>
       <r>    3.8071    1.0000 </r>
       <r>    3.8160    1.0000 </r>
       <r>    4.5238    1.0000 </r>
       <r>    4.8777    1.0000 </r>
       <r>    5.0442    1.0000 </r>
       <r>    6.8567    0.0000 </r>
       <r>    7.2604    0.0000 </r>
       <r>    7.7696    0.0000 </r>
       <r>    8.2910    0.0000 </r>
       <r>    8.7656    0.0000 </r>
       <r>    9.1973    0.0000 </r>
       <r>    9.3362    0.0000 </r>
       <r>    9.9064    0.0000 </r>
      </set>
      <set comment="kpoint 15">
       <r>   -5.6661    1.0000 </r>
       <r>   -4.3881    1.0000 </r>
       <r>   -4.0806    1.0000 </r>
       <r>   -3.9149    1.0000 </r>
       <r>   -0.3042    1.0000 </r>
       <r>   -0.2039    1.0000 </r>
       <r>    0.9541    1.0000 </r>
       <r>    2.4131    1.0000 </r>
       <r>    2.9894    1.0000 </r>
       <r>    3.2270    1.0000 </r>
       <r>    3.3952    1.0000 </r>
       <r>    3.4217    1.0000 </r>
       <r>    3.9393    1.0000 </r>
       <r>    4.3498    1.0000 </r>
       <r>    4.7040    1.0000 </r>
       <r>    5.4086    1.0000 </r>
       <r>    6.5661    0.0000 </r>
       <r>    7.7670    0.0000 </r>
       <r>    7.9209    0.0000 </r>
       <r>    8.1062    0.0000 </r>
       <r>    8.2801    0.0000 </r>
       <r>    8.8803    0.0000 </r>
       <r>    9.2297    0.0000 </r>
       <r>    9.9447    0.0000 </r>
      </set>
      <set comment="kpoint 16">
       <r>   -5.8591    1.0000 </r>
       <r>   -4.4237    1.0000 </r>
       <r>   -3.6527    1.0000 </r>
       <r>   -3.6378    1.0000 </r>
       <r>   -0.9721    1.0000 </r>
       <r>   -0.1583    1.0000 </r>
       <r>   -0.0779    1.0000 </r>
       <r>    2.9343    1.0000 </r>
       <r>    3.0149    1.0000 </r>
       <r>    3.1626    1.0000 </r>
       <r>    3.9133    1.0000 </r>
       <r>    4.2422    1.0000 </r>
       <r>    4.2619    1.0000 </r>
       <r>    4.3662    1.0000 </r>
       <r>    4.7570    1.0000 </r>
       <r>    5.6021    1.0000 </r>
       <r>    6.5521    0.0000 </r>
       <r>    7.4148    0.0000 </r>
       <r>    7.8940    0.0000 </r>
       <r>    8.0010    0.0000 </r>
       <r>    8.6249    0.0000 </r>
       <r>    8.6465    0.0000 </r>
       <r>    8.8314    0.0000 </r>
       <r>    9.0268    0.0000 </r>
      </set>
      <set comment="kpoint 17">
       <r>   -5.5662    1.0000 </r>
       <r>   -5.1284    1.0000 </r>
       <r>   -3.8350    1.0000 </r>
       <r>   -2.3034    1.0000 </r>
       <r>   -1.7561    1.0000 </r>
       <r>   -1.1594    1.0000 </r>
       <r>    1.2197    1.0000 </r>
       <r>    2.4912    1.0000 </r>
       <r>    2.8545    1.0000 </r>
       <r>    2.9373    1.0000 </r>
       <r>    4.4346    1.0000 </r>
       <r>    4.5284    1.0000 </r>
       <r>    4.8866    1.0000 </r>
       <r>    4.8866    1.0000 </r>
       <r>    5.1254    1.0000 </r>
       <r>    5.1254    1.0000 </r>
       <r>    6.4663    0.0000 </r>
       <r>    6.6268    0.0000 </r>
       <r>    7.3960    0.0000 </r>
       <r>    7.6362    0.0000 </r>
       <r>    7.8965    0.0000 </r>
       <r>    9.0673    0.0000 </r>
       <r>    9.1643    0.0000 </r>
       <r>    9.1644    0.0000 </r>
      </set>
      <set comment="kpoint 18">
       <r>   -5.4095    1.0000 </r>
       <r>   -5.1429    1.0000 </r>
       <r>   -4.1584    1.0000 </r>
       <r>   -2.6759    1.0000 </r>
       <r>   -1.3279    1.0000 </r>
       <r>   -0.6989    1.0000 </r>
       <r>    1.4702    1.0000 </r>
       <r>    2.2299    1.0000 </r>
       <r>    2.6509    1.0000 </r>
       <r>    2.9961    1.0000 </r>
       <r>    4.0923    1.0000 </r>
       <r>    4.5968    1.0000 </r>
       <r>    4.6187    1.0000 </r>
       <r>    4.6371    1.0000 </r>
       <r>    4.8058    1.0000 </r>
       <r>    5.0985    1.0000 </r>
       <r>    6.5284    0.0000 </r>
       <r>    7.0527    0.0000 </r>
       <r>    7.3268    0.0000 </r>
       <r>    8.1770    0.0000 </r>
       <r>    8.1856    0.0000 </r>
       <r>    8.9632    0.0000 </r>
       <r>    9.1405    0.0000 </r>
       <r>    9.1577    0.0000 </r>
      </set>
      <set comment="kpoint 19">
       <r>   -5.0894    1.0000 </r>
       <r>   -5.0014    1.0000 </r>
       <r>   -4.6425    1.0000 </r>
       <r>   -3.4687    1.0000 </r>
       <r>   -0.3674    1.0000 </r>
       <r>    0.2141    1.0000 </r>
       <r>    1.5871    1.0000 </r>
       <r>    1.8907    1.0000 </r>
       <r>    2.5656    1.0000 </r>
       <r>    3.0920    1.0000 </r>
       <r>    3.1977    1.0000 </r>
       <r>    3.9727    1.0000 </r>
       <r>    4.0992    1.0000 </r>
       <r>    4.3767    1.0000 </r>
       <r>    4.8089    1.0000 </r>
       <r>    5.0453    1.0000 </r>
       <r>    6.7519    0.0000 </r>
       <r>    7.6370    0.0000 </r>
       <r>    7.6593    0.0000 </r>
       <r>    7.8745    0.0000 </r>
       <r>    8.6958    0.0000 </r>
       <r>    9.2015    0.0000 </r>
       <r>    9.3349    0.0000 </r>
       <r>    9.5156    0.0000 </r>
      </set>
      <set comment="kpoint 20">
       <r>   -5.0787    1.0000 </r>
       <r>   -4.7181    1.0000 </r>
       <r>   -4.6090    1.0000 </r>
       <r>   -4.1185    1.0000 </r>
       <r>    0.3844    1.0000 </r>
       <r>    0.9461    1.0000 </r>
       <r>    1.2617    1.0000 </r>
       <r>    1.3374    1.0000 </r>
       <r>    2.8331    1.0000 </r>
       <r>    2.9523    1.0000 </r>
       <r>    3.3739    1.0000 </r>
       <r>    3.5305    1.0000 </r>
       <r>    3.6220    1.0000 </r>
       <r>    3.9887    1.0000 </r>
       <r>    4.8557    1.0000 </r>
       <r>    5.0668    1.0000 </r>
       <r>    6.9965    0.0000 </r>
       <r>    7.1857    0.0000 </r>
       <r>    8.2139    0.0000 </r>
       <r>    8.5294    0.0000 </r>
       <r>    8.5397    0.0000 </r>
       <r>    8.9413    0.0000 </r>
       <r>    9.2420    0.0000 </r>
       <r>    9.5023    0.0000 </r>
      </set>
      <set comment="kpoint 21">
       <r>   -5.3933    1.0000 </r>
       <r>   -4.6152    1.0000 </r>
       <r>   -4.3301    1.0000 </r>
       <r>   -3.9749    1.0000 </r>
       <r>   -0.0691    1.0000 </r>
       <r>    0.3118    1.0000 </r>
       <r>    0.7856    1.0000 </r>
       <r>    2.4248    1.0000 </r>
       <r>    3.1390    1.0000 </r>
       <r>    3.2564    1.0000 </r>
       <r>    3.4041    1.0000 </r>
       <r>    3.5779    1.0000 </r>
       <r>    3.7439    1.0000 </r>
       <r>    3.9690    1.0000 </r>
       <r>    4.6656    1.0000 </r>
       <r>    5.3116    1.0000 </r>
       <r>    6.5327    0.0000 </r>
       <r>    7.5801    0.0000 </r>
       <r>    7.7578    0.0000 </r>
       <r>    8.1783    0.0000 </r>
       <r>    8.7390    0.0000 </r>
       <r>    9.1065    0.0000 </r>
       <r>    9.3880    0.0000 </r>
       <r>    9.4281    0.0000 </r>
      </set>
      <set comment="kpoint 22">
       <r>   -5.5594    1.0000 </r>
       <r>   -4.9527    1.0000 </r>
       <r>   -3.9453    1.0000 </r>
       <r>   -3.1992    1.0000 </r>
       <r>   -0.8903    1.0000 </r>
       <r>   -0.7406    1.0000 </r>
       <r>    1.0050    1.0000 </r>
       <r>    2.7148    1.0000 </r>
       <r>    3.0226    1.0000 </r>
       <r>    3.0248    1.0000 </r>
       <r>    3.9635    1.0000 </r>
       <r>    4.3519    1.0000 </r>
       <r>    4.4580    1.0000 </r>
       <r>    4.5041    1.0000 </r>
       <r>    4.5466    1.0000 </r>
       <r>    5.3798    1.0000 </r>
       <r>    6.3409    0.0000 </r>
       <r>    6.9228    0.0000 </r>
       <r>    7.7602    0.0000 </r>
       <r>    8.0449    0.0000 </r>
       <r>    8.4294    0.0000 </r>
       <r>    8.9481    0.0000 </r>
       <r>    9.0446    0.0000 </r>
       <r>    9.1363    0.0000 </r>
      </set>
      <set comment="kpoint 23">
       <r>   -6.0763    1.0000 </r>
       <r>   -3.7991    1.0000 </r>
       <r>   -3.4668    1.0000 </r>
       <r>   -3.3151    1.0000 </r>
       <r>   -1.1009    1.0000 </r>
       <r>   -0.6331    1.0000 </r>
       <r>   -0.6125    1.0000 </r>
       <r>    2.0823    1.0000 </r>
       <r>    2.2626    1.0000 </r>
       <r>    3.1917    1.0000 </r>
       <r>    3.4667    1.0000 </r>
       <r>    4.0021    1.0000 </r>
       <r>    4.4348    1.0000 </r>
       <r>    5.0822    1.0000 </r>
       <r>    5.4693    1.0000 </r>
       <r>    5.6697    1.0000 </r>
       <r>    7.7524    0.0000 </r>
       <r>    7.7633    0.0000 </r>
       <r>    8.0215    0.0000 </r>
       <r>    8.2989    0.0000 </r>
       <r>    8.5233    0.0000 </r>
       <r>    8.5959    0.0000 </r>
       <r>    8.9953    0.0000 </r>
       <r>    9.4106    0.0000 </r>
      </set>
      <set comment="kpoint 24">
       <r>   -5.9855    1.0000 </r>
       <r>   -4.1685    1.0000 </r>
       <r>   -3.7634    1.0000 </r>
       <r>   -2.6921    1.0000 </r>
       <r>   -1.2080    1.0000 </r>
       <r>   -1.0013    1.0000 </r>
       <r>    0.1898    1.0000 </r>
       <r>    1.6188    1.0000 </r>
       <r>    2.7770    1.0000 </r>
       <r>    3.0730    1.0000 </r>
       <r>    3.5953    1.0000 </r>
       <r>    3.8960    1.0000 </r>
       <r>    4.2622    1.0000 </r>
       <r>    4.4166    1.0000 </r>
       <r>    5.3402    1.0000 </r>
       <r>    5.5830    1.0000 </r>
       <r>    7.7252    0.0000 </r>
       <r>    8.0136    0.0000 </r>
       <r>    8.1918    0.0000 </r>
       <r>    8.3423    0.0000 </r>
       <r>    8.5438    0.0000 </r>
       <r>    8.8011    0.0000 </r>
       <r>    9.0283    0.0000 </r>
       <r>    9.6935    0.0000 </r>
      </set>
      <set comment="kpoint 25">
       <r>   -5.7309    1.0000 </r>
       <r>   -4.8270    1.0000 </r>
       <r>   -3.5923    1.0000 </r>
       <r>   -2.7023    1.0000 </r>
       <r>   -1.1642    1.0000 </r>
       <r>   -0.8299    1.0000 </r>
       <r>    1.2171    1.0000 </r>
       <r>    1.4429    1.0000 </r>
       <r>    2.6578    1.0000 </r>
       <r>    3.1743    1.0000 </r>
       <r>    3.2757    1.0000 </r>
       <r>    3.5008    1.0000 </r>
       <r>    3.9363    1.0000 </r>
       <r>    4.5031    1.0000 </r>
       <r>    4.5157    1.0000 </r>
       <r>    5.2943    1.0000 </r>
       <r>    7.8543    0.0000 </r>
       <r>    8.2102    0.0000 </r>
       <r>    8.3752    0.0000 </r>
       <r>    8.5732    0.0000 </r>
       <r>    8.9432    0.0000 </r>
       <r>    8.9934    0.0000 </r>
       <r>    9.3754    0.0000 </r>
       <r>    9.4559    0.0000 </r>
      </set>
      <set comment="kpoint 26">
       <r>   -5.3680    1.0000 </r>
       <r>   -5.3175    1.0000 </r>
       <r>   -3.3080    1.0000 </r>
       <r>   -3.0944    1.0000 </r>
       <r>   -0.9853    1.0000 </r>
       <r>   -0.7140    1.0000 </r>
       <r>    1.7942    1.0000 </r>
       <r>    1.8322    1.0000 </r>
       <r>    2.3674    1.0000 </r>
       <r>    2.4333    1.0000 </r>
       <r>    3.4536    1.0000 </r>
       <r>    3.5963    1.0000 </r>
       <r>    3.7360    1.0000 </r>
       <r>    3.8372    1.0000 </r>
       <r>    4.7806    1.0000 </r>
       <r>    5.1059    1.0000 </r>
       <r>    8.0588    0.0000 </r>
       <r>    8.1371    0.0000 </r>
       <r>    8.3133    0.0000 </r>
       <r>    8.5084    0.0000 </r>
       <r>    9.0263    0.0000 </r>
       <r>    9.4808    0.0000 </r>
       <r>    9.8772    0.0000 </r>
       <r>    9.9790    0.0000 </r>
      </set>
      <set comment="kpoint 27">
       <r>   -5.7638    1.0000 </r>
       <r>   -4.7562    1.0000 </r>
       <r>   -3.4533    1.0000 </r>
       <r>   -2.9948    1.0000 </r>
       <r>   -1.0239    1.0000 </r>
       <r>   -0.8882    1.0000 </r>
       <r>    1.3236    1.0000 </r>
       <r>    1.4779    1.0000 </r>
       <r>    2.6717    1.0000 </r>
       <r>    3.1217    1.0000 </r>
       <r>    3.3648    1.0000 </r>
       <r>    3.5539    1.0000 </r>
       <r>    3.8696    1.0000 </r>
       <r>    4.1601    1.0000 </r>
       <r>    4.5025    1.0000 </r>
       <r>    5.5329    1.0000 </r>
       <r>    7.9799    0.0000 </r>
       <r>    8.0663    0.0000 </r>
       <r>    8.4735    0.0000 </r>
       <r>    8.6268    0.0000 </r>
       <r>    8.7432    0.0000 </r>
       <r>    8.9958    0.0000 </r>
       <r>    9.0137    0.0000 </r>
       <r>    9.5851    0.0000 </r>
      </set>
      <set comment="kpoint 28">
       <r>   -6.0018    1.0000 </r>
       <r>   -4.0698    1.0000 </r>
       <r>   -3.6944    1.0000 </r>
       <r>   -2.9589    1.0000 </r>
       <r>   -1.0994    1.0000 </r>
       <r>   -1.0570    1.0000 </r>
       <r>    0.2825    1.0000 </r>
       <r>    1.7542    1.0000 </r>
       <r>    2.6000    1.0000 </r>
       <r>    3.3030    1.0000 </r>
       <r>    3.5349    1.0000 </r>
       <r>    3.5742    1.0000 </r>
       <r>    4.3063    1.0000 </r>
       <r>    4.6119    1.0000 </r>
       <r>    5.2216    1.0000 </r>
       <r>    5.6184    1.0000 </r>
       <r>    7.8773    0.0000 </r>
       <r>    7.9658    0.0000 </r>
       <r>    8.0280    0.0000 </r>
       <r>    8.3214    0.0000 </r>
       <r>    8.6149    0.0000 </r>
       <r>    8.7700    0.0000 </r>
       <r>    9.0240    0.0000 </r>
       <r>    9.4726    0.0000 </r>
      </set>
      <set comment="kpoint 29">
       <r>   -5.9678    1.0000 </r>
       <r>   -4.1762    1.0000 </r>
       <r>   -3.6364    1.0000 </r>
       <r>   -3.0028    1.0000 </r>
       <r>   -0.8687    1.0000 </r>
       <r>   -0.8328    1.0000 </r>
       <r>   -0.5223    1.0000 </r>
       <r>    2.2019    1.0000 </r>
       <r>    2.8316    1.0000 </r>
       <r>    2.8467    1.0000 </r>
       <r>    3.9416    1.0000 </r>
       <r>    4.0377    1.0000 </r>
       <r>    4.5031    1.0000 </r>
       <r>    4.5308    1.0000 </r>
       <r>    5.0922    1.0000 </r>
       <r>    5.5148    1.0000 </r>
       <r>    7.3979    0.0000 </r>
       <r>    7.8283    0.0000 </r>
       <r>    8.1955    0.0000 </r>
       <r>    8.3461    0.0000 </r>
       <r>    8.4160    0.0000 </r>
       <r>    8.7935    0.0000 </r>
       <r>    8.9244    0.0000 </r>
       <r>    9.0194    0.0000 </r>
      </set>
      <set comment="kpoint 30">
       <r>   -5.8519    1.0000 </r>
       <r>   -4.2299    1.0000 </r>
       <r>   -4.1969    1.0000 </r>
       <r>   -2.2516    1.0000 </r>
       <r>   -1.6325    1.0000 </r>
       <r>   -0.3255    1.0000 </r>
       <r>   -0.1291    1.0000 </r>
       <r>    1.8063    1.0000 </r>
       <r>    2.7951    1.0000 </r>
       <r>    3.2705    1.0000 </r>
       <r>    3.7311    1.0000 </r>
       <r>    3.8913    1.0000 </r>
       <r>    4.2928    1.0000 </r>
       <r>    4.3956    1.0000 </r>
       <r>    4.8200    1.0000 </r>
       <r>    5.4855    1.0000 </r>
       <r>    7.4325    0.0000 </r>
       <r>    8.0498    0.0000 </r>
       <r>    8.3369    0.0000 </r>
       <r>    8.3873    0.0000 </r>
       <r>    8.7521    0.0000 </r>
       <r>    8.9232    0.0000 </r>
       <r>    9.0057    0.0000 </r>
       <r>    9.0948    0.0000 </r>
      </set>
      <set comment="kpoint 31">
       <r>   -5.5721    1.0000 </r>
       <r>   -4.8355    1.0000 </r>
       <r>   -4.0719    1.0000 </r>
       <r>   -2.6071    1.0000 </r>
       <r>   -1.2734    1.0000 </r>
       <r>   -0.0922    1.0000 </r>
       <r>    0.8633    1.0000 </r>
       <r>    1.6781    1.0000 </r>
       <r>    2.7080    1.0000 </r>
       <r>    2.9648    1.0000 </r>
       <r>    3.0909    1.0000 </r>
       <r>    3.7019    1.0000 </r>
       <r>    4.1392    1.0000 </r>
       <r>    4.5117    1.0000 </r>
       <r>    4.6828    1.0000 </r>
       <r>    4.8919    1.0000 </r>
       <r>    7.6057    0.0000 </r>
       <r>    7.7920    0.0000 </r>
       <r>    8.2877    0.0000 </r>
       <r>    8.6985    0.0000 </r>
       <r>    9.0043    0.0000 </r>
       <r>    9.2080    0.0000 </r>
       <r>    9.4919    0.0000 </r>
       <r>    9.6865    0.0000 </r>
      </set>
      <set comment="kpoint 32">
       <r>   -5.3411    1.0000 </r>
       <r>   -5.1329    1.0000 </r>
       <r>   -3.8220    1.0000 </r>
       <r>   -3.2059    1.0000 </r>
       <r>   -0.8512    1.0000 </r>
       <r>   -0.0432    1.0000 </r>
       <r>    1.9279    1.0000 </r>
       <r>    2.0231    1.0000 </r>
       <r>    2.0253    1.0000 </r>
       <r>    2.1639    1.0000 </r>
       <r>    3.3323    1.0000 </r>
       <r>    3.8122    1.0000 </r>
       <r>    3.8972    1.0000 </r>
       <r>    4.1436    1.0000 </r>
       <r>    4.1906    1.0000 </r>
       <r>    5.2112    1.0000 </r>
       <r>    7.4083    0.0000 </r>
       <r>    7.9406    0.0000 </r>
       <r>    8.3032    0.0000 </r>
       <r>    8.6550    0.0000 </r>
       <r>    9.0821    0.0000 </r>
       <r>    9.3769    0.0000 </r>
       <r>    9.4963    0.0000 </r>
       <r>    9.7380    0.0000 </r>
      </set>
      <set comment="kpoint 33">
       <r>   -5.7076    1.0000 </r>
       <r>   -4.5433    1.0000 </r>
       <r>   -3.6781    1.0000 </r>
       <r>   -3.5113    1.0000 </r>
       <r>   -0.7075    1.0000 </r>
       <r>   -0.5015    1.0000 </r>
       <r>    1.1395    1.0000 </r>
       <r>    1.8942    1.0000 </r>
       <r>    2.7474    1.0000 </r>
       <r>    3.1473    1.0000 </r>
       <r>    3.2677    1.0000 </r>
       <r>    3.6671    1.0000 </r>
       <r>    3.7260    1.0000 </r>
       <r>    3.8810    1.0000 </r>
       <r>    4.7131    1.0000 </r>
       <r>    5.2502    1.0000 </r>
       <r>    7.2776    0.0000 </r>
       <r>    8.2640    0.0000 </r>
       <r>    8.3633    0.0000 </r>
       <r>    8.4594    0.0000 </r>
       <r>    8.6572    0.0000 </r>
       <r>    8.8268    0.0000 </r>
       <r>    9.1688    0.0000 </r>
       <r>    9.4725    0.0000 </r>
      </set>
      <set comment="kpoint 34">
       <r>   -5.9189    1.0000 </r>
       <r>   -4.0033    1.0000 </r>
       <r>   -3.8206    1.0000 </r>
       <r>   -3.3450    1.0000 </r>
       <r>   -0.9782    1.0000 </r>
       <r>   -0.6393    1.0000 </r>
       <r>    0.1014    1.0000 </r>
       <r>    2.3271    1.0000 </r>
       <r>    2.6550    1.0000 </r>
       <r>    3.1670    1.0000 </r>
       <r>    3.4985    1.0000 </r>
       <r>    3.7162    1.0000 </r>
       <r>    4.4231    1.0000 </r>
       <r>    4.4593    1.0000 </r>
       <r>    5.0534    1.0000 </r>
       <r>    5.1578    1.0000 </r>
       <r>    7.3484    0.0000 </r>
       <r>    7.9224    0.0000 </r>
       <r>    8.1098    0.0000 </r>
       <r>    8.2378    0.0000 </r>
       <r>    8.3860    0.0000 </r>
       <r>    9.0735    0.0000 </r>
       <r>    9.1384    0.0000 </r>
       <r>    9.2771    0.0000 </r>
      </set>
      <set comment="kpoint 35">
       <r>   -5.7292    1.0000 </r>
       <r>   -4.7089    1.0000 </r>
       <r>   -3.7328    1.0000 </r>
       <r>   -2.5998    1.0000 </r>
       <r>   -1.3640    1.0000 </r>
       <r>   -1.0409    1.0000 </r>
       <r>    0.4527    1.0000 </r>
       <r>    2.5699    1.0000 </r>
       <r>    2.6885    1.0000 </r>
       <r>    3.3473    1.0000 </r>
       <r>    3.5079    1.0000 </r>
       <r>    4.1338    1.0000 </r>
       <r>    4.3336    1.0000 </r>
       <r>    4.6828    1.0000 </r>
       <r>    4.7221    1.0000 </r>
       <r>    5.3450    1.0000 </r>
       <r>    7.0551    0.0000 </r>
       <r>    7.3175    0.0000 </r>
       <r>    7.9672    0.0000 </r>
       <r>    8.0505    0.0000 </r>
       <r>    8.3312    0.0000 </r>
       <r>    8.7841    0.0000 </r>
       <r>    9.0273    0.0000 </r>
       <r>    9.0766    0.0000 </r>
      </set>
      <set comment="kpoint 36">
       <r>   -5.5893    1.0000 </r>
       <r>   -4.7321    1.0000 </r>
       <r>   -4.1807    1.0000 </r>
       <r>   -2.2672    1.0000 </r>
       <r>   -1.6794    1.0000 </r>
       <r>   -0.4712    1.0000 </r>
       <r>    0.6838    1.0000 </r>
       <r>    2.3107    1.0000 </r>
       <r>    2.6405    1.0000 </r>
       <r>    2.9852    1.0000 </r>
       <r>    3.8026    1.0000 </r>
       <r>    3.9042    1.0000 </r>
       <r>    4.1586    1.0000 </r>
       <r>    4.4501    1.0000 </r>
       <r>    4.6275    1.0000 </r>
       <r>    5.3475    1.0000 </r>
[...]
       <r>   -3.0435    1.0000 </r>
       <r>   -2.1099    1.0000 </r>
       <r>   -1.8433    1.0000 </r>
       <r>   -0.8778    1.0000 </r>
       <r>   -0.8148    1.0000 </r>
       <r>   -0.4497    1.0000 </r>
       <r>    2.1101    1.0000 </r>
       <r>    2.2500    1.0000 </r>
       <r>    2.7282    1.0000 </r>
       <r>    2.7733    1.0000 </r>
       <r>    2.8743    1.0000 </r>
       <r>    3.8861    1.0000 </r>
       <r>    3.9116    1.0000 </r>
       <r>    4.5519    1.0000 </r>
       <r>    6.9565    0.0000 </r>
       <r>    7.5665    0.0000 </r>
       <r>    7.9292    0.0000 </r>
       <r>    7.9942    0.0000 </r>
       <r>    8.2807    0.0000 </r>
       <r>    8.5725    0.0000 </r>
       <r>    8.8936    0.0000 </r>
       <r>    9.0495    0.0000 </r>
      </set>
      <set comment="kpoint 230">
       <r>   -3.9523    1.0000 </r>
       <r>   -3.9071    1.0000 </r>
       <r>   -2.8036    1.0000 </r>
       <r>   -2.2895    1.0000 </r>
       <r>   -1.7176    1.0000 </r>
       <r>   -1.1143    1.0000 </r>
       <r>   -0.8913    1.0000 </r>
       <r>   -0.5452    1.0000 </r>
       <r>    1.9181    1.0000 </r>
       <r>    2.4165    1.0000 </r>
       <r>    2.9758    1.0000 </r>
       <r>    3.1982    1.0000 </r>
       <r>    3.2120    1.0000 </r>
       <r>    4.0073    1.0000 </r>
       <r>    4.1196    1.0000 </r>
       <r>    4.4277    1.0000 </r>
       <r>    6.6167    0.0000 </r>
       <r>    6.8821    0.0000 </r>
       <r>    7.3400    0.0000 </r>
       <r>    7.7358    0.0000 </r>
       <r>    7.8702    0.0000 </r>
       <r>    8.8080    0.0000 </r>
       <r>    9.0008    0.0000 </r>
       <r>    9.4358    0.0000 </r>
      </set>
      <set comment="kpoint 231">
       <r>   -4.1865    1.0000 </r>
       <r>   -3.7007    1.0000 </r>
       <r>   -2.5658    1.0000 </r>
       <r>   -2.5647    1.0000 </r>
       <r>   -1.4044    1.0000 </r>
       <r>   -1.3321    1.0000 </r>
       <r>   -1.0820    1.0000 </r>
       <r>   -0.0375    1.0000 </r>
       <r>    1.6570    1.0000 </r>
       <r>    2.4583    1.0000 </r>
       <r>    2.8148    1.0000 </r>
       <r>    3.1215    1.0000 </r>
       <r>    3.1752    1.0000 </r>
       <r>    3.4897    1.0000 </r>
       <r>    4.0527    1.0000 </r>
       <r>    4.3330    1.0000 </r>
       <r>    6.9128    0.0000 </r>
       <r>    7.2336    0.0000 </r>
       <r>    7.4255    0.0000 </r>
       <r>    7.9869    0.0000 </r>
       <r>    8.0843    0.0000 </r>
       <r>    9.1515    0.0000 </r>
       <r>    9.4923    0.0000 </r>
       <r>    9.5702    0.0000 </r>
      </set>
      <set comment="kpoint 232">
       <r>   -4.3675    1.0000 </r>
       <r>   -3.5085    1.0000 </r>
       <r>   -2.7975    1.0000 </r>
       <r>   -2.4105    1.0000 </r>
       <r>   -1.4045    1.0000 </r>
       <r>   -1.1207    1.0000 </r>
       <r>   -0.9866    1.0000 </r>
       <r>    0.5210    1.0000 </r>
       <r>    1.5852    1.0000 </r>
       <r>    1.9187    1.0000 </r>
       <r>    2.5882    1.0000 </r>
       <r>    2.6427    1.0000 </r>
       <r>    2.7497    1.0000 </r>
       <r>    3.1971    1.0000 </r>
       <r>    3.9737    1.0000 </r>
       <r>    4.3164    1.0000 </r>
       <r>    6.8771    0.0000 </r>
       <r>    7.8225    0.0000 </r>
       <r>    8.4670    0.0000 </r>
       <r>    8.7965    0.0000 </r>
       <r>    8.8761    0.0000 </r>
       <r>    9.1027    0.0000 </r>
       <r>    9.8806    0.0000 </r>
       <r>   10.4054    0.0000 </r>
      </set>
     </set>
    </set>
   </array>
  </eigenvalues>
  <separator name="orbital magnetization" >
   <v name="MAGDIPOLOUT">      0.00000000      0.00000000      0.00000000</v>
  </separator>
  <dos>
   <i name="efermi">      5.81450493 </i>
   <total>
    <array>
     <dimension dim="1">gridpoints</dimension>
     <dimension dim="2">spin</dimension>
     <field>energy</field>
     <field>total</field>
     <field>integrated</field>
     <set>
      <set comment="spin 1">
       <r>    -7.0066     0.0000     0.0000 </r>
       <r>    -6.9442     0.0000     0.0000 </r>
       <r>    -6.8817     0.0000     0.0000 </r>
       <r>    -6.8192     0.0000     0.0000 </r>
       <r>    -6.7568     0.0000     0.0000 </r>
       <r>    -6.6943     0.0000     0.0000 </r>
       <r>    -6.6318     0.0000     0.0000 </r>
       <r>    -6.5694     0.0000     0.0000 </r>
       <r>    -6.5069     0.0000     0.0000 </r>
       <r>    -6.4444     0.0000     0.0000 </r>
       <r>    -6.3820     0.0000     0.0000 </r>
       <r>    -6.3195     0.0000     0.0000 </r>
       <r>    -6.2570     0.0000     0.0000 </r>
       <r>    -6.1946     0.0000     0.0000 </r>
       <r>    -6.1321     0.0693     0.0043 </r>
       <r>    -6.0696     0.3397     0.0255 </r>
       <r>    -6.0072     0.3839     0.0496 </r>
       <r>    -5.9447     0.7799     0.0983 </r>
       <r>    -5.8822     0.4152     0.1242 </r>
       <r>    -5.8198     0.8317     0.1762 </r>
       <r>    -5.7573     0.9767     0.2372 </r>
       <r>    -5.6948     1.2690     0.3165 </r>
       <r>    -5.6324     0.7548     0.3637 </r>
       <r>    -5.5699     0.7122     0.4082 </r>
       <r>    -5.5074     1.0346     0.4728 </r>
       <r>    -5.4450     1.3203     0.5553 </r>
       <r>    -5.3825     1.5603     0.6528 </r>
       <r>    -5.3200     1.3772     0.7389 </r>
       <r>    -5.2576     1.2455     0.8167 </r>
       <r>    -5.1951     1.3800     0.9029 </r>
       <r>    -5.1326     1.4896     0.9960 </r>
       <r>    -5.0702     1.6463     1.0989 </r>
       <r>    -5.0077     1.2618     1.1777 </r>
       <r>    -4.9453     1.4907     1.2708 </r>
       <r>    -4.8828     1.7955     1.3831 </r>
       <r>    -4.8203     2.1812     1.5194 </r>
       <r>    -4.7579     1.3436     1.6033 </r>
       <r>    -4.6954     2.1202     1.7358 </r>
       <r>    -4.6329     2.1450     1.8698 </r>
       <r>    -4.5705     1.6438     1.9724 </r>
       <r>    -4.5080     2.2158     2.1109 </r>
       <r>    -4.4455     1.6341     2.2130 </r>
       <r>    -4.3831     1.9370     2.3340 </r>
       <r>    -4.3206     3.0772     2.5263 </r>
       <r>    -4.2581     1.8994     2.6451 </r>
       <r>    -4.1957     2.1906     2.7820 </r>
       <r>    -4.1332     3.0495     2.9725 </r>
       <r>    -4.0707     2.0932     3.1033 </r>
       <r>    -4.0083     3.2947     3.3092 </r>
       <r>    -3.9458     2.7560     3.4815 </r>
       <r>    -3.8833     3.5862     3.7055 </r>
       <r>    -3.8209     1.9343     3.8265 </r>
       <r>    -3.7584     3.0477     4.0169 </r>
       <r>    -3.6959     3.9063     4.2609 </r>
       <r>    -3.6335     4.5953     4.5480 </r>
       <r>    -3.5710     3.0209     4.7367 </r>
       <r>    -3.5085     3.6373     4.9639 </r>
       <r>    -3.4461     3.3182     5.1714 </r>
       <r>    -3.3836     2.0154     5.2974 </r>
       <r>    -3.3211     2.4246     5.4489 </r>
       <r>    -3.2587     3.4971     5.6673 </r>
       <r>    -3.1962     2.7312     5.8380 </r>
       <r>    -3.1337     3.1435     6.0343 </r>
       <r>    -3.0713     2.8130     6.2101 </r>
       <r>    -3.0088     2.3039     6.3540 </r>
       <r>    -2.9463     2.3551     6.5012 </r>
       <r>    -2.8839     2.0649     6.6302 </r>
       <r>    -2.8214     2.0361     6.7574 </r>
       <r>    -2.7589     2.5133     6.9144 </r>
       <r>    -2.6965     2.5823     7.0758 </r>
       <r>    -2.6340     2.4575     7.2294 </r>
       <r>    -2.5715     1.4467     7.3197 </r>
       <r>    -2.5091     1.0654     7.3863 </r>
       <r>    -2.4466     1.5311     7.4820 </r>
       <r>    -2.3841     1.9179     7.6018 </r>
       <r>    -2.3217     1.5997     7.7017 </r>
       <r>    -2.2592     0.9124     7.7587 </r>
       <r>    -2.1968     1.5254     7.8540 </r>
       <r>    -2.1343     1.2436     7.9317 </r>
       <r>    -2.0718     0.7312     7.9773 </r>
       <r>    -2.0094     0.2232     7.9913 </r>
       <r>    -1.9469     0.1368     7.9999 </r>
       <r>    -1.8844     0.2789     8.0173 </r>
       <r>    -1.8220     0.6888     8.0604 </r>
       <r>    -1.7595     0.7246     8.1057 </r>
       <r>    -1.6970     0.8018     8.1558 </r>
       <r>    -1.6346     0.4857     8.1861 </r>
       <r>    -1.5721     1.2431     8.2638 </r>
       <r>    -1.5096     1.6134     8.3646 </r>
       <r>    -1.4472     1.4432     8.4548 </r>
       <r>    -1.3847     2.3367     8.6008 </r>
       <r>    -1.3222     1.2973     8.6819 </r>
       <r>    -1.2598     1.6157     8.7829 </r>
       <r>    -1.1973     2.2814     8.9255 </r>
       <r>    -1.1348     2.9202     9.1079 </r>
       <r>    -1.0724     4.3016     9.3766 </r>
       <r>    -1.0099     5.4958     9.7200 </r>
       <r>    -0.9474     7.7892    10.2066 </r>
       <r>    -0.8850     4.3068    10.4757 </r>
       <r>    -0.8225     4.3815    10.7494 </r>
       <r>    -0.7600     3.3933    10.9614 </r>
       <r>    -0.6976     3.5840    11.1853 </r>
       <r>    -0.6351     3.8633    11.4267 </r>
       <r>    -0.5726     3.9435    11.6730 </r>
       <r>    -0.5102     2.0521    11.8012 </r>
       <r>    -0.4477     1.5061    11.8953 </r>
       <r>    -0.3852     2.1475    12.0295 </r>
       <r>    -0.3228     2.3436    12.1759 </r>
       <r>    -0.2603     2.3549    12.3230 </r>
       <r>    -0.1978     2.4545    12.4764 </r>
       <r>    -0.1354     2.2937    12.6196 </r>
       <r>    -0.0729     2.3501    12.7665 </r>
       <r>    -0.0104     1.8235    12.8804 </r>
       <r>     0.0520     0.9728    12.9412 </r>
       <r>     0.1145     2.4911    13.0968 </r>
       <r>     0.1770     2.0389    13.2243 </r>
       <r>     0.2394     1.5038    13.3182 </r>
       <r>     0.3019     1.4924    13.4114 </r>
       <r>     0.3644     1.2704    13.4908 </r>
       <r>     0.4268     1.0933    13.5591 </r>
       <r>     0.4893     2.0747    13.6887 </r>
       <r>     0.5518     1.4615    13.7801 </r>
       <r>     0.6142     1.5725    13.8783 </r>
       <r>     0.6767     0.9234    13.9360 </r>
       <r>     0.7391     0.6841    13.9788 </r>
       <r>     0.8016     0.8537    14.0321 </r>
       <r>     0.8641     1.2043    14.1074 </r>
       <r>     0.9265     1.4065    14.1952 </r>
       <r>     0.9890     1.4329    14.2848 </r>
       <r>     1.0515     1.3189    14.3672 </r>
       <r>     1.1139     1.3295    14.4502 </r>
       <r>     1.1764     0.6352    14.4899 </r>
       <r>     1.2389     0.8987    14.5461 </r>
       <r>     1.3013     0.7638    14.5938 </r>
       <r>     1.3638     1.1221    14.6639 </r>
       <r>     1.4263     1.2937    14.7447 </r>
       <r>     1.4887     2.2333    14.8842 </r>
       <r>     1.5512     2.6427    15.0494 </r>
       <r>     1.6137     4.7899    15.3487 </r>
       <r>     1.6761     4.4062    15.6240 </r>
       <r>     1.7386     4.9738    15.9348 </r>
       <r>     1.8011     3.8874    16.1776 </r>
       <r>     1.8635     4.8804    16.4825 </r>
       <r>     1.9260     4.7016    16.7762 </r>
       <r>     1.9885     4.5840    17.0626 </r>
       <r>     2.0509     2.4595    17.2164 </r>
       <r>     2.1134     4.2709    17.4832 </r>
       <r>     2.1759     6.5708    17.8937 </r>
       <r>     2.2383     4.1711    18.1545 </r>
       <r>     2.3008     3.7081    18.3861 </r>
       <r>     2.3633     4.0914    18.6417 </r>
       <r>     2.4257     3.4824    18.8594 </r>
       <r>     2.4882     2.8897    19.0399 </r>
       <r>     2.5507     2.9969    19.2272 </r>
       <r>     2.6131     6.4762    19.6318 </r>
       <r>     2.6756     5.8444    19.9969 </r>
       <r>     2.7381     5.1018    20.3158 </r>
       <r>     2.8005     4.0465    20.5685 </r>
       <r>     2.8630     5.8266    20.9326 </r>
       <r>     2.9255     4.9212    21.2401 </r>
       <r>     2.9879     6.2332    21.6295 </r>
       <r>     3.0504     6.8200    22.0557 </r>
       <r>     3.1129     6.2587    22.4467 </r>
       <r>     3.1753     6.5454    22.8556 </r>
       <r>     3.2378     5.3761    23.1915 </r>
       <r>     3.3003     5.4693    23.5332 </r>
       <r>     3.3627     4.8326    23.8351 </r>
       <r>     3.4252     4.8531    24.1382 </r>
       <r>     3.4876     5.2266    24.4648 </r>
       <r>     3.5501     8.2816    24.9822 </r>
       <r>     3.6126     5.2820    25.3123 </r>
       <r>     3.6750     5.1353    25.6332 </r>
       <r>     3.7375     4.4696    25.9126 </r>
       <r>     3.8000     4.2412    26.1777 </r>
       <r>     3.8624     5.2109    26.5033 </r>
       <r>     3.9249     5.7829    26.8646 </r>
       <r>     3.9874     5.2765    27.1943 </r>
       <r>     4.0498     5.9121    27.5637 </r>
       <r>     4.1123     5.6402    27.9161 </r>
       <r>     4.1748     5.2268    28.2427 </r>
       <r>     4.2372     4.2052    28.5055 </r>
       <r>     4.2997     3.2084    28.7059 </r>
       <r>     4.3622     5.3710    29.0415 </r>
       <r>     4.4246     4.8282    29.3431 </r>
       <r>     4.4871     3.5964    29.5678 </r>
       <r>     4.5496     4.3739    29.8411 </r>
       <r>     4.6120     4.0502    30.0943 </r>
       <r>     4.6745     3.3446    30.3032 </r>
       <r>     4.7370     4.2384    30.5680 </r>
       <r>     4.7994     2.9221    30.7505 </r>
       <r>     4.8619     2.0493    30.8786 </r>
       <r>     4.9244     2.8318    31.0555 </r>
       <r>     4.9868     1.8513    31.1712 </r>
       <r>     5.0493     1.4474    31.2617 </r>
       <r>     5.1118     2.3006    31.4054 </r>
       <r>     5.1742     1.4565    31.4964 </r>
       <r>     5.2367     1.2509    31.5746 </r>
       <r>     5.2992     1.4085    31.6626 </r>
       <r>     5.3616     1.1489    31.7343 </r>
       <r>     5.4241     1.0168    31.7979 </r>
       <r>     5.4866     0.9377    31.8565 </r>
       <r>     5.5490     0.7903    31.9058 </r>
       <r>     5.6115     0.6157    31.9443 </r>
       <r>     5.6740     0.6441    31.9846 </r>
       <r>     5.7364     0.0399    31.9871 </r>
       <r>     5.7989     0.2061    32.0000 </r>
       <r>     5.8614     0.0000    32.0000 </r>
       <r>     5.9238     0.0000    32.0000 </r>
       <r>     5.9863     0.0000    32.0000 </r>
       <r>     6.0488     0.0000    32.0000 </r>
       <r>     6.1112     0.0000    32.0000 </r>
       <r>     6.1737     0.0000    32.0000 </r>
       <r>     6.2361     0.0000    32.0000 </r>
       <r>     6.2986     0.0000    32.0000 </r>
       <r>     6.3611     0.1383    32.0086 </r>
       <r>     6.4235     0.1111    32.0156 </r>
       <r>     6.4860     0.6446    32.0559 </r>
       <r>     6.5485     1.0613    32.1222 </r>
       <r>     6.6109     1.1030    32.1911 </r>
       <r>     6.6734     1.1764    32.2646 </r>
       <r>     6.7359     0.6914    32.3078 </r>
       <r>     6.7983     1.8650    32.4243 </r>
       <r>     6.8608     1.3754    32.5103 </r>
       <r>     6.9233     1.6099    32.6108 </r>
       <r>     6.9857     2.2819    32.7534 </r>
       <r>     7.0482     2.2724    32.8953 </r>
       <r>     7.1107     1.7330    33.0036 </r>
       <r>     7.1731     1.4374    33.0934 </r>
       <r>     7.2356     3.9000    33.3370 </r>
       <r>     7.2981     2.8293    33.5139 </r>
       <r>     7.3605     3.4473    33.7293 </r>
       <r>     7.4230     2.6603    33.8955 </r>
       <r>     7.4855     2.6817    34.0631 </r>
       <r>     7.5479     3.4724    34.2800 </r>
       <r>     7.6104     3.7020    34.5112 </r>
       <r>     7.6729     4.6756    34.8033 </r>
       <r>     7.7353     5.2119    35.1290 </r>
       <r>     7.7978     4.6518    35.4197 </r>
       <r>     7.8603     4.4505    35.6978 </r>
       <r>     7.9227     7.0852    36.1404 </r>
       <r>     7.9852     5.6990    36.4965 </r>
       <r>     8.0477     5.4045    36.8342 </r>
       <r>     8.1101     6.2141    37.2225 </r>
       <r>     8.1726     5.8949    37.5907 </r>
       <r>     8.2351     6.2725    37.9826 </r>
       <r>     8.2975     5.2883    38.3130 </r>
       <r>     8.3600     5.5112    38.6573 </r>
       <r>     8.4225     6.1661    39.0426 </r>
       <r>     8.4849     5.5458    39.3891 </r>
       <r>     8.5474     3.8245    39.6282 </r>
       <r>     8.6099     4.2982    39.8968 </r>
       <r>     8.6723     4.7786    40.1953 </r>
       <r>     8.7348     4.5063    40.4769 </r>
       <r>     8.7973     4.9783    40.7879 </r>
       <r>     8.8597     4.2506    41.0535 </r>
       <r>     8.9222     4.3372    41.3245 </r>
       <r>     8.9847     6.8015    41.7494 </r>
       <r>     9.0471     9.4665    42.3408 </r>
       <r>     9.1096     8.4914    42.8714 </r>
       <r>     9.1720     7.1870    43.3205 </r>
       <r>     9.2345     7.8429    43.8106 </r>
       <r>     9.2970     6.1721    44.1961 </r>
       <r>     9.3594     5.7539    44.5556 </r>
       <r>     9.4219     5.3153    44.8878 </r>
       <r>     9.4844     4.0487    45.1408 </r>
       <r>     9.5468     5.3600    45.4757 </r>
       <r>     9.6093     5.0827    45.7933 </r>
       <r>     9.6718     6.3250    46.1885 </r>
       <r>     9.7342     4.0927    46.4442 </r>
       <r>     9.7967     2.7840    46.6182 </r>
       <r>     9.8592     3.1259    46.8134 </r>
       <r>     9.9216     2.9964    47.0007 </r>
       <r>     9.9841     2.1093    47.1325 </r>
       <r>    10.0466     1.8089    47.2455 </r>
       <r>    10.1090     1.9644    47.3682 </r>
       <r>    10.1715     1.6642    47.4721 </r>
       <r>    10.2340     1.3465    47.5563 </r>
       <r>    10.2964     1.4035    47.6440 </r>
       <r>    10.3589     0.7922    47.6936 </r>
       <r>    10.4214     1.6294    47.7953 </r>
       <r>    10.4838     1.3101    47.8772 </r>
       <r>    10.5463     0.6810    47.9197 </r>
       <r>    10.6088     0.3180    47.9396 </r>
       <r>    10.6712     0.1351    47.9481 </r>
       <r>    10.7337     0.2626    47.9645 </r>
       <r>    10.7962     0.0146    47.9654 </r>
       <r>    10.8586     0.3103    47.9848 </r>
       <r>    10.9211     0.2441    48.0000 </r>
       <r>    10.9836     0.0000    48.0000 </r>
       <r>    11.0460     0.0000    48.0000 </r>
       <r>    11.1085     0.0000    48.0000 </r>
       <r>    11.1710     0.0000    48.0000 </r>
       <r>    11.2334     0.0000    48.0000 </r>
       <r>    11.2959     0.0000    48.0000 </r>
       <r>    11.3584     0.0000    48.0000 </r>
       <r>    11.4208     0.0000    48.0000 </r>
       <r>    11.4833     0.0000    48.0000 </r>
       <r>    11.5458     0.0000    48.0000 </r>
       <r>    11.6082     0.0000    48.0000 </r>
       <r>    11.6707     0.0000    48.0000 </r>
       <r>    11.7332     0.0000    48.0000 </r>
      </set>
     </set>
    </array>
   </total>
  </dos>
 </calculation>
 <structure name="finalpos" >
  <crystal>
   <varray name="basis" >
    <v>      -2.72185119       2.72185119       5.44370237 </v>
    <v>       2.72185119      -5.44370237       2.72185119 </v>
    <v>       2.72185119       2.72185119       0.00000000 </v>
   </varray>
   <i name="volume">    161.31810740 </i>
   <varray name="rec_basis" >
    <v>      -0.04592463       0.04592463       0.13777388 </v>
    <v>       0.09184925      -0.09184925       0.09184925 </v>
    <v>       0.22962313       0.13777388       0.04592463 </v>
   </varray>
  </crystal>
  <varray name="positions" >
   <v>       0.00000000       0.00000000       0.00000000 </v>
   <v>       0.50000000       0.00000000       0.50000000 </v>
   <v>       0.25000000       0.50000000       0.75000000 </v>
   <v>       0.75000000       0.50000000       0.25000000 </v>
   <v>       0.18750000       0.12500000       0.56250000 </v>
   <v>       0.68750000       0.12500000       0.06250000 </v>
   <v>       0.43750000       0.62500000       0.31250000 </v>
   <v>       0.93750000       0.62500000       0.81250000 </v>
  </varray>
 </structure>
</modeling>
