<?xml version="1.0" encoding="ISO-8859-1"?>
<modeling>
 <generator>
  <i name="program" type="string">vasp </i>
  <i name="version" type="string">6.4.3  </i>
  <i name="subversion" type="string">19Mar24 (build Jun 20 2024 15:56:09) complex                          parallel </i>
  <i name="platform" type="string">LinuxNV_CrayMPICH </i>
  <i name="date" type="string">2025 01 13 </i>
  <i name="time" type="string">18:19:42 </i>
 </generator>
 <incar>
  <i type="string" name="PREC">Accurate</i>
  <i type="int" name="IBRION">    -1</i>
  <i name="EDIFF">      0.00000001</i>
  <i type="int" name="NSW">     0</i>
  <i name="ENCUT">    500.00000000</i>
  <i type="logical" name="LREAL"> F  </i>
  <i type="int" name="ISMEAR">     0</i>
  <i name="SIGMA">      0.01000000</i>
  <i type="logical" name="LWAVE"> F  </i>
  <i type="logical" name="LCHARG"> F  </i>
 </incar>
 <primitive_cell>
  <structure name="primitive_cell" >
   <crystal>
    <varray name="basis" >
     <v>       0.00000000       2.72185119      -2.72185119 </v>
     <v>       2.72185119       2.72185119       0.00000000 </v>
     <v>       2.72185119       0.00000000      -2.72185119 </v>
    </varray>
    <i name="volume">     40.32952685 </i>
    <varray name="rec_basis" >
     <v>      -0.18369851       0.18369851      -0.18369851 </v>
     <v>       0.18369851       0.18369851       0.18369851 </v>
     <v>       0.18369851      -0.18369851      -0.18369851 </v>
    </varray>
   </crystal>
   <varray name="positions" >
    <v>       0.00000000       0.00000000       0.00000000 </v>
    <v>       0.75000000       0.75000000       0.75000000 </v>
   </varray>
  </structure>
  <varray name="primitive_index" >
   <v type="int" >        1 </v>
   <v type="int" >        5 </v>
  </varray>
 </primitive_cell>
 <kpoints>
  <generation param="Gamma">
   <v type="int" name="divisions">       4       11       11 </v>
   <v name="usershift">      0.00000000       0.00000000       0.00000000 </v>
   <v name="genvec1">      0.25000000      -0.00000000       0.00000000 </v>
   <v name="genvec2">     -0.00000000       0.09090909       0.00000000 </v>
   <v name="genvec3">     -0.00000000       0.00000000       0.09090909 </v>
   <v name="shift">      0.00000000       0.00000000       0.00000000 </v>
  </generation>
  <varray name="kpointlist" >
   <v>       0.00000000       0.00000000       0.00000000 </v>
   <v>       0.25000000       0.00000000       0.00000000 </v>
   <v>       0.50000000       0.00000000       0.00000000 </v>
   <v>       0.00000000       0.09090909       0.00000000 </v>
   <v>       0.25000000       0.09090909       0.00000000 </v>
   <v>       0.50000000       0.09090909       0.00000000 </v>
   <v>       0.00000000       0.18181818       0.00000000 </v>
   <v>       0.25000000       0.18181818       0.00000000 </v>
   <v>       0.50000000       0.18181818       0.00000000 </v>
   <v>       0.00000000       0.27272727       0.00000000 </v>
   <v>       0.25000000       0.27272727       0.00000000 </v>
   <v>       0.50000000       0.27272727       0.00000000 </v>
   <v>       0.00000000       0.36363636       0.00000000 </v>
   <v>       0.25000000       0.36363636       0.00000000 </v>
   <v>       0.50000000       0.36363636       0.00000000 </v>
   <v>       0.00000000       0.45454545       0.00000000 </v>
   <v>       0.25000000       0.45454545       0.00000000 </v>
   <v>       0.50000000       0.45454545       0.00000000 </v>
   <v>       0.00000000       0.09090909       0.09090909 </v>
   <v>       0.25000000       0.09090909       0.09090909 </v>
   <v>       0.50000000       0.09090909       0.09090909 </v>
   <v>       0.00000000       0.18181818       0.09090909 </v>
   <v>       0.25000000       0.18181818       0.09090909 </v>
   <v>       0.50000000       0.18181818       0.09090909 </v>
   <v>       0.00000000       0.27272727       0.09090909 </v>
   <v>       0.25000000       0.27272727       0.09090909 </v>
   <v>       0.50000000       0.27272727       0.09090909 </v>
   <v>       0.00000000       0.36363636       0.09090909 </v>
   <v>       0.25000000       0.36363636       0.09090909 </v>
   <v>       0.50000000       0.36363636       0.09090909 </v>
   <v>       0.00000000       0.45454545       0.09090909 </v>
   <v>       0.25000000       0.45454545       0.09090909 </v>
   <v>       0.50000000       0.45454545       0.09090909 </v>
   <v>       0.00000000       0.18181818       0.18181818 </v>
   <v>       0.25000000       0.18181818       0.18181818 </v>
   <v>       0.50000000       0.18181818       0.18181818 </v>
   <v>       0.00000000       0.27272727       0.18181818 </v>
   <v>       0.25000000       0.27272727       0.18181818 </v>
   <v>       0.50000000       0.27272727       0.18181818 </v>
   <v>       0.00000000       0.36363636       0.18181818 </v>
   <v>       0.25000000       0.36363636       0.18181818 </v>
   <v>       0.50000000       0.36363636       0.18181818 </v>
   <v>       0.00000000       0.45454545       0.18181818 </v>
   <v>       0.25000000       0.45454545       0.18181818 </v>
   <v>       0.50000000       0.45454545       0.18181818 </v>
   <v>       0.00000000       0.27272727       0.27272727 </v>
   <v>       0.25000000       0.27272727       0.27272727 </v>
   <v>       0.50000000       0.27272727       0.27272727 </v>
   <v>       0.00000000       0.36363636       0.27272727 </v>
   <v>       0.25000000       0.36363636       0.27272727 </v>
   <v>       0.50000000       0.36363636       0.27272727 </v>
   <v>       0.00000000       0.45454545       0.27272727 </v>
   <v>       0.25000000       0.45454545       0.27272727 </v>
   <v>       0.50000000       0.45454545       0.27272727 </v>
   <v>       0.00000000       0.36363636       0.36363636 </v>
   <v>       0.25000000       0.36363636       0.36363636 </v>
   <v>       0.50000000       0.36363636       0.36363636 </v>
   <v>       0.00000000       0.45454545       0.36363636 </v>
   <v>       0.25000000       0.45454545       0.36363636 </v>
   <v>       0.50000000       0.45454545       0.36363636 </v>
   <v>       0.00000000       0.45454545       0.45454545 </v>
   <v>       0.25000000       0.45454545       0.45454545 </v>
   <v>       0.50000000       0.45454545       0.45454545 </v>
  </varray>
  <varray name="weights" >
   <v>       0.00206612 </v>
   <v>       0.00413223 </v>
   <v>       0.00206612 </v>
   <v>       0.00826446 </v>
   <v>       0.01652893 </v>
   <v>       0.00826446 </v>
   <v>       0.00826446 </v>
   <v>       0.01652893 </v>
   <v>       0.00826446 </v>
   <v>       0.00826446 </v>
   <v>       0.01652893 </v>
   <v>       0.00826446 </v>
   <v>       0.00826446 </v>
   <v>       0.01652893 </v>
   <v>       0.00826446 </v>
   <v>       0.00826446 </v>
   <v>       0.01652893 </v>
   <v>       0.00826446 </v>
   <v>       0.00826446 </v>
   <v>       0.01652893 </v>
   <v>       0.00826446 </v>
   <v>       0.01652893 </v>
   <v>       0.03305785 </v>
   <v>       0.01652893 </v>
   <v>       0.01652893 </v>
   <v>       0.03305785 </v>
   <v>       0.01652893 </v>
   <v>       0.01652893 </v>
   <v>       0.03305785 </v>
   <v>       0.01652893 </v>
   <v>       0.01652893 </v>
   <v>       0.03305785 </v>
   <v>       0.01652893 </v>
   <v>       0.00826446 </v>
   <v>       0.01652893 </v>
   <v>       0.00826446 </v>
   <v>       0.01652893 </v>
   <v>       0.03305785 </v>
   <v>       0.01652893 </v>
   <v>       0.01652893 </v>
   <v>       0.03305785 </v>
   <v>       0.01652893 </v>
   <v>       0.01652893 </v>
   <v>       0.03305785 </v>
   <v>       0.01652893 </v>
   <v>       0.00826446 </v>
   <v>       0.01652893 </v>
   <v>       0.00826446 </v>
   <v>       0.01652893 </v>
   <v>       0.03305785 </v>
   <v>       0.01652893 </v>
   <v>       0.01652893 </v>
   <v>       0.03305785 </v>
   <v>       0.01652893 </v>
   <v>       0.00826446 </v>
   <v>       0.01652893 </v>
   <v>       0.00826446 </v>
   <v>       0.01652893 </v>
   <v>       0.03305785 </v>
   <v>       0.01652893 </v>
   <v>       0.00826446 </v>
   <v>       0.01652893 </v>
   <v>       0.00826446 </v>
  </varray>
 </kpoints>
 <parameters>
  <separator name="general" >
   <i type="string" name="SYSTEM">unknown system</i>
   <i type="logical" name="LCOMPAT"> F  </i>
  </separator>
  <separator name="electronic" >
   <i type="string" name="PREC">accura</i>
   <i name="ENMAX">    500.00000000</i>
   <i name="ENAUG">    322.06900000</i>
   <i name="EDIFF">      0.00000001</i>
   <i type="int" name="IALGO">    38</i>
   <i type="int" name="IWAVPR">    10</i>
   <i type="int" name="NBANDS">    24</i>
   <i type="int" name="NBANDSLOW">    -1</i>
   <i type="int" name="NBANDSHIGH">    -1</i>
   <i name="NELECT">     32.00000000</i>
   <i type="int" name="TURBO">     0</i>
   <i type="int" name="IRESTART">     0</i>
   <i type="int" name="NREBOOT">     0</i>
   <i type="int" name="NMIN">     0</i>
   <i name="EREF">      0.00000000</i>
   <separator name="electronic smearing" >
    <i type="int" name="ISMEAR">     0</i>
    <i name="SIGMA">      0.01000000</i>
    <i name="KSPACING">      0.50000000</i>
    <i type="logical" name="KGAMMA"> T  </i>
    <i type="logical" name="KBLOWUP"> T  </i>
   </separator>
   <separator name="electronic projectors" >
    <i type="logical" name="LREAL"> F  </i>
    <v name="ROPT">      0.00000000</v>
    <i type="int" name="LMAXPAW">  -100</i>
    <i type="int" name="LMAXMIX">     2</i>
    <i type="logical" name="NLSPLINE"> F  </i>
   </separator>
   <separator name="electronic startup" >
    <i type="int" name="ISTART">     0</i>
    <i type="int" name="ICHARG">     2</i>
    <i type="int" name="INIWAV">     1</i>
   </separator>
   <separator name="electronic spin" >
    <i type="int" name="ISPIN">     1</i>
    <i type="logical" name="LNONCOLLINEAR"> F  </i>
    <v name="MAGMOM">      1.00000000      1.00000000      1.00000000      1.00000000      1.00000000      1.00000000      1.00000000      1.00000000</v>
    <i name="NUPDOWN">     -1.00000000</i>
    <i type="logical" name="LSORBIT"> F  </i>
    <v name="SAXIS">      0.00000000      0.00000000      1.00000000</v>
    <i type="logical" name="LSPIRAL"> F  </i>
    <v name="QSPIRAL">      0.00000000      0.00000000      0.00000000</v>
    <i type="logical" name="LZEROZ"> F  </i>
   </separator>
   <separator name="electronic exchange-correlation" >
    <i type="logical" name="LASPH"> F  </i>
   </separator>
   <separator name="electronic convergence" >
    <i type="int" name="NELM">    60</i>
    <i type="int" name="NELMDL">    -5</i>
    <i type="int" name="NELMIN">     2</i>
    <i name="ENINI">    500.00000000</i>
    <separator name="electronic convergence detail" >
     <i type="logical" name="LDIAG"> T  </i>
     <i type="logical" name="LSUBROT"> F  </i>
     <i name="WEIMIN">      0.00000000</i>
     <i name="EBREAK">      0.00000000</i>
     <i name="DEPER">      0.30000000</i>
     <i type="int" name="NRMM">     4</i>
     <i name="TIME">      0.40000000</i>
    </separator>
   </separator>
   <separator name="electronic mixer" >
    <i name="AMIX">      0.40000000</i>
    <i name="BMIX">      1.00000000</i>
    <i name="AMIN">      0.10000000</i>
    <i name="AMIX_MAG">      1.60000000</i>
    <i name="BMIX_MAG">      1.00000000</i>
    <separator name="electronic mixer details" >
     <i type="int" name="IMIX">     4</i>
     <i type="logical" name="MIXFIRST"> F  </i>
     <i type="int" name="MAXMIX">   -45</i>
     <i name="WC">    100.00000000</i>
     <i type="int" name="INIMIX">     1</i>
     <i type="int" name="MIXPRE">     1</i>
     <i type="int" name="MREMOVE">     5</i>
    </separator>
   </separator>
   <separator name="electronic dipolcorrection" >
    <i type="logical" name="LDIPOL"> F  </i>
    <i type="logical" name="LMONO"> F  </i>
    <i type="int" name="IDIPOL">     0</i>
    <i name="EPSILON">      1.00000000</i>
    <v name="DIPOL">   -100.00000000   -100.00000000   -100.00000000</v>
    <i name="EFIELD">      0.00000000</i>
    <i type="logical" name="LVACPOTAV"> F  </i>
   </separator>
  </separator>
  <separator name="grids" >
   <i type="int" name="NGX">    80</i>
   <i type="int" name="NGY">    28</i>
   <i type="int" name="NGZ">    28</i>
   <i type="int" name="NGXF">   160</i>
   <i type="int" name="NGYF">    56</i>
   <i type="int" name="NGZF">    56</i>
   <i type="logical" name="ADDGRID"> F  </i>
  </separator>
  <separator name="ionic" >
   <i type="int" name="NSW">     0</i>
   <i type="int" name="IBRION">    -1</i>
   <i type="int" name="MDALGO">     0</i>
   <i type="int" name="ISIF">     2</i>
   <i name="PSTRESS">      0.00000000</i>
   <i name="EDIFFG">      0.00000010</i>
   <i type="int" name="NFREE">     0</i>
   <i name="POTIM">      0.50000000</i>
   <i name="SMASS">     -3.00000000</i>
   <i name="SCALEE">      1.00000000</i>
  </separator>
  <separator name="ionic md" >
   <i name="TEBEG">      0.00010000</i>
   <i name="TEEND">      0.00010000</i>
   <i type="int" name="NBLOCK">     1</i>
   <i type="int" name="KBLOCK">     1</i>
   <i type="int" name="NPACO">   256</i>
   <i name="APACO">     10.00000000</i>
  </separator>
  <separator name="symmetry" >
   <i type="int" name="ISYM">     2</i>
   <i name="SYMPREC">      0.00001000</i>
  </separator>
  <separator name="dos" >
   <i type="int" name="LORBIT">     0</i>
   <v name="RWIGS">     -1.00000000</v>
   <i type="int" name="NEDOS">   301</i>
   <i name="EMIN">     10.00000000</i>
   <i name="EMAX">    -10.00000000</i>
   <i name="EFERMI">      0.00000000</i>
  </separator>
  <separator name="writing" >
   <i type="int" name="NWRITE">     2</i>
   <i type="logical" name="LWAVE"> F  </i>
   <i type="logical" name="LDOWNSAMPLE"> F  </i>
   <i type="logical" name="LCHARG"> F  </i>
   <i type="logical" name="LPARD"> F  </i>
   <i type="logical" name="LVTOT"> F  </i>
   <i type="logical" name="LVHAR"> F  </i>
   <i type="logical" name="LELF"> F  </i>
   <i type="logical" name="LOPTICS"> F  </i>
   <v name="STM">      0.00000000      0.00000000      0.00000000      0.00000000      0.00000000      0.00000000      0.00000000</v>
  </separator>
  <separator name="performance" >
   <i type="int" name="NPAR">     8</i>
   <i type="int" name="NSIM">     4</i>
   <i type="int" name="NBLK">    -1</i>
   <i type="logical" name="LPLANE"> T  </i>
   <i type="logical" name="LSCALAPACK"> T  </i>
   <i type="logical" name="LSCAAWARE"> F  </i>
   <i type="logical" name="LSCALU"> F  </i>
   <i type="logical" name="LASYNC"> F  </i>
   <i type="logical" name="LORBITALREAL"> F  </i>
  </separator>
  <separator name="miscellaneous" >
   <i type="int" name="IDIOT">     3</i>
   <i type="int" name="PHON_NSTRUCT">    -1</i>
   <i type="logical" name="LMUSIC"> F  </i>
   <v name="POMASS">     28.08500000</v>
   <v name="DARWINR">      0.00000000</v>
   <v name="DARWINV">      1.00000000</v>
   <i type="logical" name="LCORR"> T  </i>
  </separator>
  <i type="logical" name="GGA_COMPAT"> T  </i>
  <i type="logical" name="LBERRY"> F  </i>
  <i type="int" name="ICORELEVEL">     0</i>
  <i type="logical" name="LDAU"> F  </i>
  <i type="int" name="I_CONSTRAINED_M">     0</i>
  <separator name="electronic exchange-correlation" >
   <i type="string" name="GGA    ">PE</i>
   <i type="string" name="XC_C">1</i>
   <i type="int" name="VOSKOWN">     0</i>
   <i type="logical" name="LHFCALC"> F  </i>
   <i type="string" name="PRECFOCK"></i>
   <i type="logical" name="LSYMGRAD"> F  </i>
   <i type="logical" name="LHFONE"> F  </i>
   <i type="logical" name="LRHFCALC"> F  </i>
   <i type="logical" name="LTHOMAS"> F  </i>
   <i type="logical" name="LMODELHF"> F  </i>
   <i type="logical" name="LFOCKACE"> F  </i>
   <i name="ENCUT4O">     -1.00000000</i>
   <i type="int" name="EXXOEP">     0</i>
   <i type="int" name="FOURORBIT">     0</i>
   <i name="AEXX">      0.00000000</i>
   <i name="HFALPHA">      0.00000000</i>
   <i name="MCALPHA">      0.00000000</i>
   <i name="ALDAX">      1.00000000</i>
   <i name="AGGAX">      1.00000000</i>
   <i name="AMGGAX">      1.00000000</i>
   <i name="ALDAC">      1.00000000</i>
   <i name="AGGAC">      1.00000000</i>
   <i name="AMGGAC">      1.00000000</i>
   <i type="int" name="NKREDX">     1</i>
   <i type="int" name="NKREDY">     1</i>
   <i type="int" name="NKREDZ">     1</i>
   <i type="logical" name="SHIFTRED"> F  </i>
   <i type="logical" name="ODDONLY"> F  </i>
   <i type="logical" name="EVENONLY"> F  </i>
   <i type="int" name="LMAXFOCK">     0</i>
   <i type="int" name="NMAXFOCKAE">     0</i>
   <i type="logical" name="LFOCKAEDFT"> F  </i>
   <i name="HFSCREEN">      0.00000000</i>
   <i name="HFSCREENC">      0.00000000</i>
   <i type="int" name="NBANDSGWLOW">     0</i>
  </separator>
  <separator name="vdW DFT" >
   <i type="logical" name="LUSE_VDW"> F  </i>
   <i type="int" name="IVDW_NL">    -1</i>
   <i type="logical" name="LSPIN_VDW"> F  </i>
   <i name="ZAB_VDW">     -0.84910000</i>
   <i name="GAMMA_VDW">      1.39626340</i>
   <i name="ALPHA_VDW">      0.00000000</i>
   <i name="PARAM1">      0.12340000</i>
   <i name="PARAM2">      1.00000000</i>
   <i name="BPARAM">      6.30000000</i>
   <i name="CPARAM">      0.00930000</i>
  </separator>
  <separator name="model GW" >
   <i type="int" name="MODEL_GW">     0</i>
   <i name="MODEL_EPS0">     12.09885805</i>
   <i name="MODEL_ALPHA">      1.00000000</i>
  </separator>
  <separator name="linear response parameters" >
   <i type="logical" name="LEPSILON"> F  </i>
   <i type="logical" name="LRPA"> F  </i>
   <i type="logical" name="LNABLA"> F  </i>
   <i type="logical" name="LVEL"> F  </i>
   <i name="CSHIFT">      0.10000000</i>
   <i name="OMEGAMAX">     -1.00000000</i>
   <i name="DEG_THRESHOLD">      0.00200000</i>
   <i name="RTIME">     -0.10000000</i>
   <i name="WPLASMAI">      0.00000000</i>
   <v name="DFIELD">      0.00000000      0.00000000      0.00000000</v>
   <v name="WPLASMA">      0.00000000      0.00000000      0.00000000      0.00000000      0.00000000      0.00000000      0.00000000      0.00000000      0.00000000</v>
  </separator>
  <separator name="orbital magnetization" >
   <i type="logical" name="NUCIND"> F  </i>
   <v name="MAGPOS">      0.00000000      0.00000000      0.00000000</v>
   <i type="logical" name="LNICSALL"> T  </i>
   <i type="logical" name="ORBITALMAG"> F  </i>
   <i type="logical" name="LMAGBLOCH"> F  </i>
   <i type="logical" name="LCHIMAG"> F  </i>
   <i type="logical" name="LGAUGE"> T  </i>
   <i type="int" name="MAGATOM">     0</i>
   <v name="MAGDIPOL">      0.00000000      0.00000000      0.00000000</v>
   <v name="AVECCONST">      0.00000000      0.00000000      0.00000000</v>
  </separator>
  <separator name="response functions" >
   <i type="logical" name="LALL_IN_ONE"> F  </i>
   <i type="int" name="IALL_IN_ONE">    -1</i>
   <i type="int" name="NBANDS_WAVE">    -1</i>
   <i type="logical" name="LFINITE_TEMPERATURE"> F  </i>
   <i type="logical" name="LADDER"> F  </i>
   <i type="logical" name="LRPAFORCE"> F  </i>
   <i type="logical" name="LFXC"> F  </i>
   <i type="logical" name="LHARTREE"> T  </i>
   <i type="int" name="IBSE">     0</i>
   <v type="int" name="KPOINT">    -1     0     0     0</v>
   <i type="logical" name="LTCTC"> F  </i>
   <i type="logical" name="LTCTE"> F  </i>
   <i type="logical" name="LTETE"> F  </i>
   <i type="logical" name="LTRIPLET"> F  </i>
   <i type="logical" name="LFXCEPS"> F  </i>
   <i type="logical" name="LFXHEG"> F  </i>
   <i type="int" name="NATURALO">     2</i>
   <i type="logical" name="LHOLEGF"> F  </i>
   <i type="logical" name="L2ORDER"> F  </i>
   <i type="logical" name="LDMP1"> F  </i>
   <i type="logical" name="LMP2LT"> F  </i>
   <i type="logical" name="LSMP2LT"> F  </i>
   <i type="logical" name="LGWLF"> F  </i>
   <i name="ENCUTGW">     -1.60000002</i>
   <i name="ENCUTGWSOFT">     -1.60000002</i>
   <i name="ENCUTLF">     -1.00000000</i>
   <i type="logical" name="ESF_SPLINES"> F  </i>
   <i name="ESF_CONV">      0.01000000</i>
   <i type="int" name="ESF_NINTER">    15</i>
   <i type="int" name="LMAXMP2">    -1</i>
   <i name="SCISSOR">      0.00000000</i>
   <i type="int" name="NOMEGA">     0</i>
   <i type="int" name="NOMEGAR">     0</i>
   <i type="int" name="NBANDSGW">    -1</i>
   <i type="int" name="NBANDSO">    -1</i>
   <i type="int" name="NBANDSV">    -1</i>
   <i type="int" name="NELMGW">     1</i>
   <i type="int" name="NELMHF">     1</i>
   <i type="int" name="DIM">     3</i>
   <i type="int" name="IESPILON">     4</i>
   <i type="int" name="ANTIRES">     0</i>
   <i name="OMEGAMAX">    -30.00000000</i>
   <i name="OMEGAMIN">    -30.00000000</i>
   <i name="OMEGATL">   -200.00000000</i>
   <i type="int" name="OMEGAGRID">     0</i>
   <i name="CSHIFT">     -0.10000000</i>
   <i type="logical" name="LSELFENERGY"> F  </i>
   <i type="logical" name="LSPECTRAL"> F  </i>
   <i type="logical" name="LSPECTRALGW"> F  </i>
   <i type="logical" name="LSINGLES"> F  </i>
   <i type="logical" name="LFERMIGW"> F  </i>
   <i type="logical" name="ODDONLYGW"> F  </i>
   <i type="logical" name="EVENONLYGW"> F  </i>
   <i type="int" name="NKREDLFX">     1</i>
   <i type="int" name="NKREDLFY">     1</i>
   <i type="int" name="NKREDLFZ">     1</i>
   <i type="int" name="MAXMEM">  2800</i>
   <i type="int" name="TELESCOPE">     0</i>
   <i type="int" name="NTAUPAR">    -1</i>
   <i type="int" name="NOMEGAPAR">    -1</i>
   <i name="DAMP_NEWTON">      0.80000001</i>
   <i name="LAMBDA">      1.00000000</i>
  </separator>
  <separator name="External order field" >
   <i name="OFIELD_KAPPA">      0.00000000</i>
   <v name="OFIELD_K">      0.00000000      0.00000000      0.00000000</v>
   <i name="OFIELD_Q6_NEAR">      0.00000000</i>
   <i name="OFIELD_Q6_FAR">      0.00000000</i>
   <i name="OFIELD_A">      0.00000000</i>
  </separator>
  <separator name="optional k-points parameters" >
   <i type="int" name="KPOINTS_OPT_MODE">     1</i>
   <i type="logical" name="LKPOINTS_OPT"> F  </i>
  </separator>
 </parameters>
 <atominfo>
  <atoms>       8 </atoms>
  <types>       1 </types>
  <array name="atoms" >
   <dimension dim="1">ion</dimension>
   <field type="string">element</field>
   <field type="int">atomtype</field>
   <set>
    <rc><c>Si</c><c>   1</c></rc>
    <rc><c>Si</c><c>   1</c></rc>
    <rc><c>Si</c><c>   1</c></rc>
    <rc><c>Si</c><c>   1</c></rc>
    <rc><c>Si</c><c>   1</c></rc>
    <rc><c>Si</c><c>   1</c></rc>
    <rc><c>Si</c><c>   1</c></rc>
    <rc><c>Si</c><c>   1</c></rc>
   </set>
  </array>
  <array name="atomtypes" >
   <dimension dim="1">type</dimension>
   <field type="int">atomspertype</field>
   <field type="string">element</field>
   <field>mass</field>
   <field>valence</field>
   <field type="string">pseudopotential</field>
   <set>
    <rc><c>   8</c><c>Si</c><c>     28.08500000</c><c>      4.00000000</c><c>  PAW_PBE Si 05Jan2001                  </c></rc>
   </set>
  </array>
 </atominfo>
 <structure name="initialpos" >
  <crystal>
   <varray name="basis" >
    <v>       0.00000000       0.00000000     -10.88740475 </v>
    <v>      -2.72185119       2.72185119      -0.00000000 </v>
    <v>       2.72185119       2.72185119       0.00000000 </v>
   </varray>
   <i name="volume">    161.31810740 </i>
   <varray name="rec_basis" >
    <v>       0.00000000      -0.00000000      -0.09184925 </v>
    <v>      -0.18369851       0.18369851       0.00000000 </v>
    <v>       0.18369851       0.18369851       0.00000000 </v>
   </varray>
  </crystal>
  <varray name="positions" >
   <v>       0.00000000       0.00000000       0.00000000 </v>
   <v>       0.75000000       0.50000000       0.50000000 </v>
   <v>       0.50000000       0.00000000       0.00000000 </v>
   <v>       0.25000000       0.50000000       0.50000000 </v>
   <v>       0.87500000       0.00000000       0.50000000 </v>
   <v>       0.62500000       0.50000000       0.00000000 </v>
   <v>       0.37500000       0.00000000       0.50000000 </v>
   <v>       0.12500000       0.50000000       0.00000000 </v>
  </varray>
 </structure>
 <calculation>
  <scstep>
   <time name="dav">    0.33    0.33</time>
   <time name="total">    0.34    0.34</time>
   <energy>
    <i name="alphaZ">     13.35522965 </i>
    <i name="ewald">   -911.95285847 </i>
    <i name="hartreedc">    -44.45938125 </i>
    <i name="XCdc">    -74.52615019 </i>
    <i name="pawpsdc">    704.99039692 </i>
    <i name="pawaedc">   -564.24414232 </i>
    <i name="eentropy">     -0.00009194 </i>
    <i name="bandstr">    120.21139558 </i>
    <i name="atom">    824.53005375 </i>
    <i name="e_fr_energy">     67.90445173 </i>
    <i name="e_wo_entrp">     67.90454366 </i>
    <i name="e_0_energy">     67.90449769 </i>
   </energy>
  </scstep>
  <scstep>
   <time name="dav">    0.39    0.39</time>
   <time name="total">    0.39    0.39</time>
   <energy>
    <i name="e_fr_energy">    -38.82504099 </i>
    <i name="e_wo_entrp">    -38.82495332 </i>
    <i name="e_0_energy">    -38.82499715 </i>
   </energy>
  </scstep>
  <scstep>
   <time name="dav">    0.38    0.38</time>
   <time name="total">    0.38    0.38</time>
   <energy>
    <i name="e_fr_energy">    -43.99751871 </i>
    <i name="e_wo_entrp">    -43.99751871 </i>
    <i name="e_0_energy">    -43.99751871 </i>
   </energy>
  </scstep>
  <scstep>
   <time name="dav">    0.37    0.37</time>
   <time name="total">    0.37    0.37</time>
   <energy>
    <i name="e_fr_energy">    -44.09148904 </i>
    <i name="e_wo_entrp">    -44.09148904 </i>
    <i name="e_0_energy">    -44.09148904 </i>
   </energy>
  </scstep>
  <scstep>
   <time name="dav">    0.38    0.38</time>
   <time name="total">    0.40    0.41</time>
   <energy>
    <i name="e_fr_energy">    -44.09396861 </i>
    <i name="e_wo_entrp">    -44.09396861 </i>
    <i name="e_0_energy">    -44.09396861 </i>
   </energy>
  </scstep>
  <scstep>
   <time name="dav">    0.35    0.35</time>
   <time name="total">    0.39    0.40</time>
   <energy>
    <i name="e_fr_energy">    -43.60734682 </i>
    <i name="e_wo_entrp">    -43.60734682 </i>
    <i name="e_0_energy">    -43.60734682 </i>
   </energy>
  </scstep>
  <scstep>
   <time name="dav">    0.34    0.34</time>
   <time name="total">    0.37    0.38</time>
   <energy>
    <i name="e_fr_energy">    -43.38625245 </i>
    <i name="e_wo_entrp">    -43.38625245 </i>
    <i name="e_0_energy">    -43.38625245 </i>
   </energy>
  </scstep>
  <scstep>
   <time name="dav">    0.36    0.36</time>
   <time name="total">    0.39    0.40</time>
   <energy>
    <i name="e_fr_energy">    -43.38939925 </i>
    <i name="e_wo_entrp">    -43.38939925 </i>
    <i name="e_0_energy">    -43.38939925 </i>
   </energy>
  </scstep>
  <scstep>
   <time name="dav">    0.36    0.36</time>
   <time name="total">    0.40    0.40</time>
   <energy>
    <i name="e_fr_energy">    -43.39029442 </i>
    <i name="e_wo_entrp">    -43.39029442 </i>
    <i name="e_0_energy">    -43.39029442 </i>
   </energy>
  </scstep>
  <scstep>
   <time name="dav">    0.35    0.35</time>
   <time name="total">    0.39    0.39</time>
   <energy>
    <i name="e_fr_energy">    -43.39053683 </i>
    <i name="e_wo_entrp">    -43.39053683 </i>
    <i name="e_0_energy">    -43.39053683 </i>
   </energy>
  </scstep>
  <scstep>
   <time name="dav">    0.36    0.36</time>
   <time name="total">    0.39    0.40</time>
   <energy>
    <i name="e_fr_energy">    -43.39053709 </i>
    <i name="e_wo_entrp">    -43.39053709 </i>
    <i name="e_0_energy">    -43.39053709 </i>
   </energy>
  </scstep>
  <scstep>
   <time name="dav">    0.36    0.36</time>
   <time name="total">    0.40    0.40</time>
   <energy>
    <i name="e_fr_energy">    -43.39053820 </i>
    <i name="e_wo_entrp">    -43.39053820 </i>
    <i name="e_0_energy">    -43.39053820 </i>
   </energy>
  </scstep>
  <scstep>
   <time name="dav">    0.35    0.35</time>
   <time name="total">    0.39    0.39</time>
   <energy>
    <i name="e_fr_energy">    -43.39053769 </i>
    <i name="e_wo_entrp">    -43.39053769 </i>
    <i name="e_0_energy">    -43.39053769 </i>
   </energy>
  </scstep>
  <scstep>
   <time name="dav">    0.30    0.30</time>
   <time name="total">    0.34    0.34</time>
   <energy>
    <i name="e_fr_energy">    -43.39053773 </i>
    <i name="e_wo_entrp">    -43.39053773 </i>
    <i name="e_0_energy">    -43.39053773 </i>
   </energy>
  </scstep>
  <scstep>
   <time name="dav">    0.27    0.27</time>
   <time name="total">    0.30    0.31</time>
   <energy>
    <i name="e_fr_energy">    -43.39053777 </i>
    <i name="e_wo_entrp">    -43.39053777 </i>
    <i name="e_0_energy">    -43.39053777 </i>
   </energy>
  </scstep>
  <scstep>
   <time name="dav">    0.27    0.27</time>
   <time name="total">    0.29    0.29</time>
   <energy>
    <i name="alphaZ">     13.35522965 </i>
    <i name="ewald">   -911.95285847 </i>
    <i name="hartreedc">    -60.02766915 </i>
    <i name="XCdc">    -71.99026758 </i>
    <i name="pawpsdc">   3421.43063558 </i>
    <i name="pawaedc">  -3281.55386302 </i>
    <i name="eentropy">     -0.00000000 </i>
    <i name="bandstr">     22.81820147 </i>
    <i name="atom">    824.53005375 </i>
    <i name="e_fr_energy">    -43.39053777 </i>
    <i name="e_wo_entrp">    -43.39053777 </i>
    <i name="e_0_energy">    -43.39053777 </i>
   </energy>
  </scstep>
  <structure>
   <crystal>
    <varray name="basis" >
     <v>       0.00000000       0.00000000     -10.88740475 </v>
     <v>      -2.72185119       2.72185119      -0.00000000 </v>
     <v>       2.72185119       2.72185119       0.00000000 </v>
    </varray>
    <i name="volume">    161.31810740 </i>
    <varray name="rec_basis" >
     <v>       0.00000000      -0.00000000      -0.09184925 </v>
     <v>      -0.18369851       0.18369851       0.00000000 </v>
     <v>       0.18369851       0.18369851       0.00000000 </v>
    </varray>
   </crystal>
   <varray name="positions" >
    <v>       0.00000000       0.00000000       0.00000000 </v>
    <v>       0.75000000       0.50000000       0.50000000 </v>
    <v>       0.50000000       0.00000000       0.00000000 </v>
    <v>       0.25000000       0.50000000       0.50000000 </v>
    <v>       0.87500000       0.00000000       0.50000000 </v>
    <v>       0.62500000       0.50000000       0.00000000 </v>
    <v>       0.37500000       0.00000000       0.50000000 </v>
    <v>       0.12500000       0.50000000       0.00000000 </v>
   </varray>
  </structure>
  <varray name="forces" >
   <v>       0.00000000      -0.00000000      -0.00000000 </v>
   <v>      -0.00000000       0.00000000      -0.00000000 </v>
   <v>       0.00000000      -0.00000000       0.00000000 </v>
   <v>       0.00000000      -0.00000000      -0.00000000 </v>
   <v>      -0.00000000       0.00000000      -0.00000000 </v>
   <v>       0.00000000      -0.00000000       0.00000000 </v>
   <v>      -0.00000000      -0.00000000      -0.00000000 </v>
   <v>      -0.00000000      -0.00000000      -0.00000000 </v>
  </varray>
  <varray name="stress" >
   <v>      12.53983297       0.00000000       0.00000000 </v>
   <v>       0.00000000      12.53983297      -0.00000000 </v>
   <v>      -0.00000000      -0.00000000      12.48628888 </v>
  </varray>
  <energy>
   <i name="e_fr_energy">    -43.39053777 </i>
   <i name="e_wo_entrp">    -43.39053777 </i>
   <i name="e_0_energy">    -43.39053777 </i>
  </energy>
  <time name="totalsc">    6.20    6.28</time>
  <eigenvalues>
   <array>
    <dimension dim="1">band</dimension>
    <dimension dim="2">kpoint</dimension>
    <dimension dim="3">spin</dimension>
    <field>eigene</field>
    <field>occ</field>
    <set>
     <set comment="spin 1">
      <set comment="kpoint 1">
       <r>   -6.1548    1.0000 </r>
       <r>   -5.0795    1.0000 </r>
       <r>   -5.0795    1.0000 </r>
       <r>   -2.0366    1.0000 </r>
       <r>   -2.0366    1.0000 </r>
       <r>    2.2380    1.0000 </r>
       <r>    2.2380    1.0000 </r>
       <r>    2.9234    1.0000 </r>
       <r>    2.9234    1.0000 </r>
       <r>    3.8793    1.0000 </r>
       <r>    3.8793    1.0000 </r>
       <r>    3.8793    1.0000 </r>
       <r>    3.8793    1.0000 </r>
       <r>    5.7533    1.0000 </r>
       <r>    5.7533    1.0000 </r>
       <r>    5.7533    1.0000 </r>
       <r>    6.4785    0.0000 </r>
       <r>    6.4785    0.0000 </r>
       <r>    6.8923    0.0000 </r>
       <r>    6.8923    0.0000 </r>
       <r>    8.3162    0.0000 </r>
       <r>    8.3162    0.0000 </r>
       <r>    8.3162    0.0000 </r>
       <r>    8.8959    0.0000 </r>
      </set>
      <set comment="kpoint 2">
       <r>   -6.0869    1.0000 </r>
       <r>   -5.5467    1.0000 </r>
       <r>   -4.4868    1.0000 </r>
       <r>   -2.9544    1.0000 </r>
       <r>   -1.0380    1.0000 </r>
       <r>    1.1214    1.0000 </r>
       <r>    2.9847    1.0000 </r>
       <r>    2.9847    1.0000 </r>
       <r>    3.3482    1.0000 </r>
       <r>    3.4682    1.0000 </r>
       <r>    3.4682    1.0000 </r>
       <r>    4.3860    1.0000 </r>
       <r>    4.3860    1.0000 </r>
       <r>    5.3298    1.0000 </r>
       <r>    5.4934    1.0000 </r>
       <r>    5.4934    1.0000 </r>
       <r>    6.3453    0.0000 </r>
       <r>    6.5714    0.0000 </r>
       <r>    6.7954    0.0000 </r>
       <r>    7.3108    0.0000 </r>
       <r>    8.0130    0.0000 </r>
       <r>    8.1559    0.0000 </r>
       <r>    8.6597    0.0000 </r>
       <r>    8.6597    0.0000 </r>
      </set>
      <set comment="kpoint 3">
       <r>   -5.8836    1.0000 </r>
       <r>   -5.8836    1.0000 </r>
       <r>   -3.7753    1.0000 </r>
       <r>   -3.7753    1.0000 </r>
       <r>    0.0220    1.0000 </r>
       <r>    0.0220    1.0000 </r>
       <r>    3.1675    1.0000 </r>
       <r>    3.1675    1.0000 </r>
       <r>    3.1675    1.0000 </r>
       <r>    3.1675    1.0000 </r>
       <r>    4.4147    1.0000 </r>
       <r>    4.4147    1.0000 </r>
       <r>    4.9544    1.0000 </r>
       <r>    4.9544    1.0000 </r>
       <r>    4.9544    1.0000 </r>
       <r>    4.9544    1.0000 </r>
       <r>    6.3818    0.0000 </r>
       <r>    6.3818    0.0000 </r>
       <r>    7.3065    0.0000 </r>
       <r>    7.3065    0.0000 </r>
       <r>    7.7680    0.0000 </r>
       <r>    7.7680    0.0000 </r>
       <r>    9.4471    0.0000 </r>
       <r>    9.4471    0.0000 </r>
      </set>
      <set comment="kpoint 4">
       <r>   -6.0830    1.0000 </r>
       <r>   -5.0143    1.0000 </r>
       <r>   -5.0143    1.0000 </r>
       <r>   -2.0705    1.0000 </r>
       <r>   -1.9587    1.0000 </r>
       <r>    1.9492    1.0000 </r>
       <r>    1.9492    1.0000 </r>
       <r>    2.5163    1.0000 </r>
       <r>    2.9809    1.0000 </r>
       <r>    3.7820    1.0000 </r>
       <r>    3.7820    1.0000 </r>
       <r>    3.9231    1.0000 </r>
       <r>    3.9231    1.0000 </r>
       <r>    5.1216    1.0000 </r>
       <r>    5.4618    1.0000 </r>
       <r>    5.7208    1.0000 </r>
       <r>    6.5448    0.0000 </r>
       <r>    7.1275    0.0000 </r>
       <r>    7.2589    0.0000 </r>
       <r>    7.2589    0.0000 </r>
       <r>    8.3901    0.0000 </r>
       <r>    8.4523    0.0000 </r>
       <r>    8.5234    0.0000 </r>
       <r>    9.1477    0.0000 </r>
      </set>
      <set comment="kpoint 5">
       <r>   -6.0154    1.0000 </r>
       <r>   -5.4783    1.0000 </r>
       <r>   -4.4266    1.0000 </r>
       <r>   -2.9148    1.0000 </r>
       <r>   -1.0461    1.0000 </r>
       <r>    0.9706    1.0000 </r>
       <r>    2.5941    1.0000 </r>
       <r>    2.8737    1.0000 </r>
       <r>    3.0415    1.0000 </r>
       <r>    3.2257    1.0000 </r>
       <r>    3.5187    1.0000 </r>
       <r>    4.4186    1.0000 </r>
       <r>    4.4673    1.0000 </r>
       <r>    4.5654    1.0000 </r>
       <r>    5.4808    1.0000 </r>
       <r>    5.5818    1.0000 </r>
       <r>    6.5733    0.0000 </r>
       <r>    6.9197    0.0000 </r>
       <r>    7.2772    0.0000 </r>
       <r>    7.6770    0.0000 </r>
       <r>    8.3230    0.0000 </r>
       <r>    8.3324    0.0000 </r>
       <r>    8.5447    0.0000 </r>
       <r>    8.7007    0.0000 </r>
      </set>
      <set comment="kpoint 6">
       <r>   -5.8132    1.0000 </r>
       <r>   -5.8132    1.0000 </r>
       <r>   -3.7230    1.0000 </r>
       <r>   -3.7230    1.0000 </r>
       <r>   -0.0402    1.0000 </r>
       <r>   -0.0402    1.0000 </r>
       <r>    2.8293    1.0000 </r>
       <r>    2.8293    1.0000 </r>
       <r>    3.2221    1.0000 </r>
       <r>    3.2221    1.0000 </r>
       <r>    3.7472    1.0000 </r>
       <r>    3.7472    1.0000 </r>
       <r>    4.9690    1.0000 </r>
       <r>    4.9690    1.0000 </r>
       <r>    5.1680    1.0000 </r>
       <r>    5.1680    1.0000 </r>
       <r>    6.6893    0.0000 </r>
       <r>    6.6893    0.0000 </r>
       <r>    7.6926    0.0000 </r>
       <r>    7.6926    0.0000 </r>
       <r>    8.1069    0.0000 </r>
       <r>    8.1069    0.0000 </r>
       <r>    8.9061    0.0000 </r>
       <r>    8.9061    0.0000 </r>
      </set>
      <set comment="kpoint 7">
       <r>   -5.8690    1.0000 </r>
       <r>   -4.8237    1.0000 </r>
       <r>   -4.8237    1.0000 </r>
       <r>   -2.2144    1.0000 </r>
       <r>   -1.7255    1.0000 </r>
       <r>    1.1836    1.0000 </r>
       <r>    1.1836    1.0000 </r>
       <r>    1.8376    1.0000 </r>
       <r>    3.1508    1.0000 </r>
       <r>    3.7906    1.0000 </r>
       <r>    3.7906    1.0000 </r>
       <r>    3.9657    1.0000 </r>
       <r>    4.0472    1.0000 </r>
       <r>    4.0472    1.0000 </r>
       <r>    4.7669    1.0000 </r>
       <r>    5.6109    1.0000 </r>
       <r>    6.7412    0.0000 </r>
       <r>    7.7928    0.0000 </r>
       <r>    7.7928    0.0000 </r>
       <r>    8.5695    0.0000 </r>
       <r>    8.6115    0.0000 </r>
       <r>    8.6894    0.0000 </r>
       <r>    8.7788    0.0000 </r>
       <r>    9.8746    0.0000 </r>
      </set>
      <set comment="kpoint 8">
       <r>   -5.8025    1.0000 </r>
       <r>   -5.2762    1.0000 </r>
       <r>   -4.2546    1.0000 </r>
       <r>   -2.8322    1.0000 </r>
       <r>   -1.0880    1.0000 </r>
       <r>    0.4661    1.0000 </r>
       <r>    1.9089    1.0000 </r>
       <r>    1.9680    1.0000 </r>
       <r>    2.9943    1.0000 </r>
       <r>    3.2091    1.0000 </r>
       <r>    3.4460    1.0000 </r>
       <r>    3.6656    1.0000 </r>
       <r>    4.5058    1.0000 </r>
       <r>    4.6098    1.0000 </r>
       <r>    5.1301    1.0000 </r>
       <r>    5.4254    1.0000 </r>
       <r>    6.8171    0.0000 </r>
       <r>    7.3795    0.0000 </r>
       <r>    8.1424    0.0000 </r>
       <r>    8.1683    0.0000 </r>
       <r>    8.6625    0.0000 </r>
       <r>    8.8245    0.0000 </r>
       <r>    9.0533    0.0000 </r>
       <r>    9.0855    0.0000 </r>
      </set>
      <set comment="kpoint 9">
       <r>   -5.6041    1.0000 </r>
       <r>   -5.6041    1.0000 </r>
       <r>   -3.5820    1.0000 </r>
       <r>   -3.5820    1.0000 </r>
       <r>   -0.2872    1.0000 </r>
       <r>   -0.2872    1.0000 </r>
       <r>    2.3605    1.0000 </r>
       <r>    2.3605    1.0000 </r>
       <r>    2.6694    1.0000 </r>
       <r>    2.6694    1.0000 </r>
       <r>    3.3825    1.0000 </r>
       <r>    3.3825    1.0000 </r>
       <r>    4.9971    1.0000 </r>
       <r>    4.9971    1.0000 </r>
       <r>    5.1913    1.0000 </r>
       <r>    5.1913    1.0000 </r>
       <r>    7.0378    0.0000 </r>
       <r>    7.0378    0.0000 </r>
       <r>    8.0374    0.0000 </r>
       <r>    8.0374    0.0000 </r>
       <r>    8.9428    0.0000 </r>
       <r>    8.9428    0.0000 </r>
       <r>    8.9457    0.0000 </r>
       <r>    8.9457    0.0000 </r>
      </set>
      <set comment="kpoint 10">
       <r>   -5.5175    1.0000 </r>
       <r>   -4.5259    1.0000 </r>
       <r>   -4.5259    1.0000 </r>
       <r>   -2.5593    1.0000 </r>
       <r>   -1.3380    1.0000 </r>
       <r>    0.2613    1.0000 </r>
       <r>    0.2613    1.0000 </r>
       <r>    1.4235    1.0000 </r>
       <r>    2.7858    1.0000 </r>
       <r>    3.4249    1.0000 </r>
       <r>    3.9257    1.0000 </r>
       <r>    3.9932    1.0000 </r>
       <r>    3.9932    1.0000 </r>
       <r>    4.2278    1.0000 </r>
       <r>    4.2278    1.0000 </r>
       <r>    5.3980    1.0000 </r>
       <r>    7.0587    0.0000 </r>
       <r>    8.0085    0.0000 </r>
       <r>    8.0085    0.0000 </r>
       <r>    8.7891    0.0000 </r>
       <r>    8.9798    0.0000 </r>
       <r>    9.2259    0.0000 </r>
       <r>    9.2270    0.0000 </r>
       <r>    9.2270    0.0000 </r>
      </set>
      <set comment="kpoint 11">
       <r>   -5.4536    1.0000 </r>
       <r>   -4.9511    1.0000 </r>
       <r>   -4.0045    1.0000 </r>
       <r>   -2.8545    1.0000 </r>
       <r>   -1.1189    1.0000 </r>
       <r>   -0.2649    1.0000 </r>
       <r>    0.8761    1.0000 </r>
       <r>    1.6505    1.0000 </r>
       <r>    2.3133    1.0000 </r>
       <r>    3.0957    1.0000 </r>
       <r>    3.4787    1.0000 </r>
       <r>    3.8928    1.0000 </r>
       <r>    4.3784    1.0000 </r>
       <r>    4.6117    1.0000 </r>
       <r>    4.7344    1.0000 </r>
       <r>    5.2849    1.0000 </r>
       <r>    7.1384    0.0000 </r>
       <r>    7.7114    0.0000 </r>
       <r>    7.8042    0.0000 </r>
       <r>    8.2656    0.0000 </r>
       <r>    9.0402    0.0000 </r>
       <r>    9.0792    0.0000 </r>
       <r>    9.3999    0.0000 </r>
       <r>    9.5661    0.0000 </r>
      </set>
      <set comment="kpoint 12">
       <r>   -5.2633    1.0000 </r>
       <r>   -5.2633    1.0000 </r>
       <r>   -3.4205    1.0000 </r>
       <r>   -3.4205    1.0000 </r>
       <r>   -0.7190    1.0000 </r>
       <r>   -0.7190    1.0000 </r>
       <r>    1.5750    1.0000 </r>
       <r>    1.5750    1.0000 </r>
       <r>    2.2600    1.0000 </r>
       <r>    2.2600    1.0000 </r>
       <r>    3.6375    1.0000 </r>
       <r>    3.6375    1.0000 </r>
       <r>    4.8929    1.0000 </r>
       <r>    4.8929    1.0000 </r>
       <r>    4.9914    1.0000 </r>
       <r>    4.9914    1.0000 </r>
       <r>    7.3688    0.0000 </r>
       <r>    7.3688    0.0000 </r>
       <r>    7.7189    0.0000 </r>
       <r>    7.7189    0.0000 </r>
       <r>    9.2313    0.0000 </r>
       <r>    9.2313    0.0000 </r>
       <r>    9.3212    0.0000 </r>
       <r>    9.3212    0.0000 </r>
      </set>
      <set comment="kpoint 13">
       <r>   -5.0384    1.0000 </r>
       <r>   -4.1706    1.0000 </r>
       <r>   -4.1706    1.0000 </r>
       <r>   -3.1193    1.0000 </r>
       <r>   -0.7982    1.0000 </r>
       <r>   -0.5685    1.0000 </r>
       <r>   -0.5685    1.0000 </r>
       <r>    1.4218    1.0000 </r>
       <r>    1.6939    1.0000 </r>
       <r>    3.0900    1.0000 </r>
       <r>    3.7875    1.0000 </r>
       <r>    4.2863    1.0000 </r>
       <r>    4.2863    1.0000 </r>
       <r>    4.4175    1.0000 </r>
       <r>    4.4175    1.0000 </r>
       <r>    5.0714    1.0000 </r>
       <r>    7.4780    0.0000 </r>
       <r>    7.7195    0.0000 </r>
       <r>    7.7195    0.0000 </r>
       <r>    8.7289    0.0000 </r>
       <r>    9.0082    0.0000 </r>
       <r>    9.0082    0.0000 </r>
       <r>    9.4752    0.0000 </r>
       <r>    9.4837    0.0000 </r>
      </set>
      <set comment="kpoint 14">
       <r>   -4.9798    1.0000 </r>
       <r>   -4.5299    1.0000 </r>
       <r>   -3.7731    1.0000 </r>
       <r>   -3.1899    1.0000 </r>
       <r>   -0.9113    1.0000 </r>
       <r>   -0.9041    1.0000 </r>
       <r>   -0.0599    1.0000 </r>
       <r>    1.2676    1.0000 </r>
       <r>    1.7538    1.0000 </r>
       <r>    3.4339    1.0000 </r>
       <r>    3.5597    1.0000 </r>
       <r>    3.8328    1.0000 </r>
       <r>    4.1679    1.0000 </r>
       <r>    4.6734    1.0000 </r>
       <r>    4.6986    1.0000 </r>
       <r>    5.0254    1.0000 </r>
       <r>    7.4158    0.0000 </r>
       <r>    7.5475    0.0000 </r>
       <r>    7.9304    0.0000 </r>
       <r>    8.4419    0.0000 </r>
       <r>    9.2014    0.0000 </r>
       <r>    9.2325    0.0000 </r>
       <r>    9.3266    0.0000 </r>
       <r>    9.3746    0.0000 </r>
      </set>
      <set comment="kpoint 15">
       <r>   -4.8069    1.0000 </r>
       <r>   -4.8069    1.0000 </r>
       <r>   -3.4162    1.0000 </r>
       <r>   -3.4162    1.0000 </r>
       <r>   -1.0176    1.0000 </r>
       <r>   -1.0176    1.0000 </r>
       <r>    0.5761    1.0000 </r>
       <r>    0.5761    1.0000 </r>
       <r>    2.5189    1.0000 </r>
       <r>    2.5189    1.0000 </r>
       <r>    3.9642    1.0000 </r>
       <r>    3.9642    1.0000 </r>
       <r>    4.3109    1.0000 </r>
       <r>    4.3109    1.0000 </r>
       <r>    4.8883    1.0000 </r>
       <r>    4.8883    1.0000 </r>
       <r>    7.7362    0.0000 </r>
       <r>    7.7362    0.0000 </r>
       <r>    7.7919    0.0000 </r>
       <r>    7.7919    0.0000 </r>
       <r>    9.2172    0.0000 </r>
       <r>    9.2172    0.0000 </r>
       <r>    9.3941    0.0000 </r>
       <r>    9.3941    0.0000 </r>
      </set>
      <set comment="kpoint 16">
       <r>   -4.4499    1.0000 </r>
       <r>   -3.8867    1.0000 </r>
       <r>   -3.8867    1.0000 </r>
       <r>   -3.7875    1.0000 </r>
       <r>   -1.1020    1.0000 </r>
       <r>   -1.1020    1.0000 </r>
       <r>   -0.1093    1.0000 </r>
       <r>    0.7240    1.0000 </r>
       <r>    1.7650    1.0000 </r>
       <r>    2.3474    1.0000 </r>
       <r>    4.2122    1.0000 </r>
       <r>    4.5254    1.0000 </r>
       <r>    4.5254    1.0000 </r>
       <r>    4.5449    1.0000 </r>
       <r>    4.5449    1.0000 </r>
       <r>    4.6582    1.0000 </r>
       <r>    7.3295    0.0000 </r>
       <r>    7.3295    0.0000 </r>
       <r>    7.9596    0.0000 </r>
       <r>    8.4222    0.0000 </r>
       <r>    9.0812    0.0000 </r>
       <r>    9.0812    0.0000 </r>
       <r>    9.1417    0.0000 </r>
       <r>    9.1417    0.0000 </r>
      </set>
      <set comment="kpoint 17">
       <r>   -4.4032    1.0000 </r>
       <r>   -4.0802    1.0000 </r>
       <r>   -3.7711    1.0000 </r>
       <r>   -3.7651    1.0000 </r>
       <r>   -1.1259    1.0000 </r>
       <r>   -0.7855    1.0000 </r>
       <r>   -0.3916    1.0000 </r>
       <r>    0.3539    1.0000 </r>
       <r>    2.1727    1.0000 </r>
       <r>    2.7994    1.0000 </r>
       <r>    3.9001    1.0000 </r>
       <r>    4.2418    1.0000 </r>
       <r>    4.3809    1.0000 </r>
       <r>    4.4354    1.0000 </r>
       <r>    4.6212    1.0000 </r>
       <r>    4.6596    1.0000 </r>
       <r>    7.4631    0.0000 </r>
       <r>    7.7958    0.0000 </r>
       <r>    7.9983    0.0000 </r>
       <r>    8.3698    0.0000 </r>
       <r>    9.0641    0.0000 </r>
       <r>    9.1524    0.0000 </r>
       <r>    9.1638    0.0000 </r>
       <r>    9.3973    0.0000 </r>
      </set>
      <set comment="kpoint 18">
       <r>   -4.2709    1.0000 </r>
       <r>   -4.2709    1.0000 </r>
       <r>   -3.7436    1.0000 </r>
       <r>   -3.7436    1.0000 </r>
       <r>   -0.8469    1.0000 </r>
       <r>   -0.8469    1.0000 </r>
       <r>   -0.2610    1.0000 </r>
       <r>   -0.2610    1.0000 </r>
       <r>    3.0069    1.0000 </r>
       <r>    3.0069    1.0000 </r>
       <r>    3.6336    1.0000 </r>
       <r>    3.6336    1.0000 </r>
       <r>    4.3234    1.0000 </r>
       <r>    4.3234    1.0000 </r>
       <r>    4.6545    1.0000 </r>
       <r>    4.6545    1.0000 </r>
       <r>    8.0430    0.0000 </r>
       <r>    8.0430    0.0000 </r>
       <r>    8.0472    0.0000 </r>
       <r>    8.0472    0.0000 </r>
       <r>    9.3202    0.0000 </r>
       <r>    9.3202    0.0000 </r>
       <r>    9.4214    0.0000 </r>
       <r>    9.4214    0.0000 </r>
      </set>
      <set comment="kpoint 19">
       <r>   -6.0111    1.0000 </r>
       <r>   -4.9490    1.0000 </r>
       <r>   -4.9490    1.0000 </r>
       <r>   -1.9927    1.0000 </r>
       <r>   -1.9927    1.0000 </r>
       <r>    1.7773    1.0000 </r>
       <r>    1.7773    1.0000 </r>
       <r>    2.5749    1.0000 </r>
       <r>    2.5749    1.0000 </r>
       <r>    3.3771    1.0000 </r>
       <r>    3.3771    1.0000 </r>
       <r>    4.1758    1.0000 </r>
       <r>    4.1758    1.0000 </r>
       <r>    4.9462    1.0000 </r>
       <r>    5.2628    1.0000 </r>
       <r>    5.2628    1.0000 </r>
       <r>    7.1921    0.0000 </r>
       <r>    7.1921    0.0000 </r>
       <r>    7.6557    0.0000 </r>
       <r>    7.6557    0.0000 </r>
       <r>    7.9977    0.0000 </r>
       <r>    8.9830    0.0000 </r>
       <r>    8.9830    0.0000 </r>
       <r>    9.3493    0.0000 </r>
      </set>
      <set comment="kpoint 20">
       <r>   -5.9439    1.0000 </r>
       <r>   -5.4099    1.0000 </r>
       <r>   -4.3661    1.0000 </r>
       <r>   -2.8727    1.0000 </r>
       <r>   -1.0549    1.0000 </r>
       <r>    0.8607    1.0000 </r>
       <r>    2.5679    1.0000 </r>
       <r>    2.6559    1.0000 </r>
       <r>    2.7358    1.0000 </r>
       <r>    2.9793    1.0000 </r>
       <r>    3.5461    1.0000 </r>
       <r>    3.8812    1.0000 </r>
       <r>    4.3342    1.0000 </r>
       <r>    4.8741    1.0000 </r>
       <r>    5.0004    1.0000 </r>
       <r>    5.5915    1.0000 </r>
       <r>    7.0913    0.0000 </r>
       <r>    7.3424    0.0000 </r>
       <r>    7.4638    0.0000 </r>
       <r>    8.0526    0.0000 </r>
       <r>    8.3473    0.0000 </r>
       <r>    8.5608    0.0000 </r>
       <r>    8.7154    0.0000 </r>
       <r>    8.8475    0.0000 </r>
      </set>
      <set comment="kpoint 21">
       <r>   -5.7427    1.0000 </r>
       <r>   -5.7427    1.0000 </r>
       <r>   -3.6698    1.0000 </r>
       <r>   -3.6698    1.0000 </r>
       <r>   -0.0919    1.0000 </r>
       <r>   -0.0919    1.0000 </r>
       <r>    2.7058    1.0000 </r>
       <r>    2.7058    1.0000 </r>
       <r>    3.0589    1.0000 </r>
       <r>    3.0589    1.0000 </r>
       <r>    3.5099    1.0000 </r>
       <r>    3.5099    1.0000 </r>
       <r>    4.4545    1.0000 </r>
       <r>    4.4545    1.0000 </r>
       <r>    5.4609    1.0000 </r>
       <r>    5.4609    1.0000 </r>
       <r>    7.1470    0.0000 </r>
       <r>    7.1470    0.0000 </r>
       <r>    7.9186    0.0000 </r>
       <r>    7.9186    0.0000 </r>
       <r>    8.4712    0.0000 </r>
       <r>    8.4712    0.0000 </r>
       <r>    8.8352    0.0000 </r>
       <r>    8.8352    0.0000 </r>
      </set>
      <set comment="kpoint 22">
       <r>   -5.7970    1.0000 </r>
       <r>   -4.7579    1.0000 </r>
       <r>   -4.7579    1.0000 </r>
       <r>   -2.1372    1.0000 </r>
       <r>   -1.7598    1.0000 </r>
       <r>    1.1576    1.0000 </r>
       <r>    1.1576    1.0000 </r>
       <r>    1.8976    1.0000 </r>
       <r>    2.7483    1.0000 </r>
       <r>    3.1771    1.0000 </r>
       <r>    3.1771    1.0000 </r>
       <r>    3.8984    1.0000 </r>
       <r>    4.3611    1.0000 </r>
       <r>    4.3611    1.0000 </r>
       <r>    4.7007    1.0000 </r>
       <r>    5.1020    1.0000 </r>
       <r>    7.3831    0.0000 </r>
       <r>    7.8882    0.0000 </r>
       <r>    8.2743    0.0000 </r>
       <r>    8.2743    0.0000 </r>
       <r>    8.6300    0.0000 </r>
       <r>    9.2909    0.0000 </r>
       <r>    9.5490    0.0000 </r>
       <r>    9.5514    0.0000 </r>
      </set>
      <set comment="kpoint 23">
       <r>   -5.7309    1.0000 </r>
       <r>   -5.2075    1.0000 </r>
       <r>   -4.1929    1.0000 </r>
       <r>   -2.7813    1.0000 </r>
       <r>   -1.0994    1.0000 </r>
       <r>    0.4386    1.0000 </r>
       <r>    1.8840    1.0000 </r>
       <r>    1.9976    1.0000 </r>
       <r>    2.6873    1.0000 </r>
       <r>    2.8463    1.0000 </r>
       <r>    3.4000    1.0000 </r>
       <r>    3.6774    1.0000 </r>
       <r>    3.7279    1.0000 </r>
       <r>    4.8129    1.0000 </r>
       <r>    5.0255    1.0000 </r>
       <r>    5.1298    1.0000 </r>
       <r>    7.4464    0.0000 </r>
       <r>    7.9189    0.0000 </r>
       <r>    8.1451    0.0000 </r>
       <r>    8.5486    0.0000 </r>
       <r>    8.7271    0.0000 </r>
       <r>    8.9195    0.0000 </r>
       <r>    9.0331    0.0000 </r>
       <r>    9.5336    0.0000 </r>
      </set>
      <set comment="kpoint 24">
       <r>   -5.5335    1.0000 </r>
       <r>   -5.5335    1.0000 </r>
       <r>   -3.5261    1.0000 </r>
       <r>   -3.5261    1.0000 </r>
       <r>   -0.3093    1.0000 </r>
       <r>   -0.3093    1.0000 </r>
       <r>    2.2785    1.0000 </r>
       <r>    2.2785    1.0000 </r>
       <r>    2.6390    1.0000 </r>
       <r>    2.6390    1.0000 </r>
       <r>    3.1521    1.0000 </r>
       <r>    3.1521    1.0000 </r>
       <r>    4.3092    1.0000 </r>
       <r>    4.3092    1.0000 </r>
       <r>    5.3554    1.0000 </r>
       <r>    5.3554    1.0000 </r>
       <r>    7.6307    0.0000 </r>
       <r>    7.6307    0.0000 </r>
       <r>    8.4340    0.0000 </r>
       <r>    8.4340    0.0000 </r>
       <r>    8.9508    0.0000 </r>
       <r>    8.9508    0.0000 </r>
       <r>    9.0219    0.0000 </r>
       <r>    9.0219    0.0000 </r>
      </set>
      <set comment="kpoint 25">
       <r>   -5.4455    1.0000 </r>
       <r>   -4.4590    1.0000 </r>
       <r>   -4.4590    1.0000 </r>
       <r>   -2.4833    1.0000 </r>
       <r>   -1.3730    1.0000 </r>
       <r>    0.2832    1.0000 </r>
       <r>    0.2832    1.0000 </r>
       <r>    1.4844    1.0000 </r>
       <r>    2.7344    1.0000 </r>
       <r>    3.0277    1.0000 </r>
       <r>    3.3181    1.0000 </r>
       <r>    3.3181    1.0000 </r>
       <r>    3.9312    1.0000 </r>
       <r>    4.5021    1.0000 </r>
       <r>    4.5021    1.0000 </r>
       <r>    4.9360    1.0000 </r>
       <r>    7.6922    0.0000 </r>
       <r>    8.0910    0.0000 </r>
       <r>    8.4317    0.0000 </r>
       <r>    8.4317    0.0000 </r>
       <r>    9.0537    0.0000 </r>
       <r>    9.0537    0.0000 </r>
       <r>    9.3646    0.0000 </r>
       <r>   10.1230    0.0000 </r>
      </set>
      <set comment="kpoint 26">
       <r>   -5.3819    1.0000 </r>
       <r>   -4.8819    1.0000 </r>
       <r>   -3.9405    1.0000 </r>
       <r>   -2.7893    1.0000 </r>
       <r>   -1.1350    1.0000 </r>
       <r>   -0.2478    1.0000 </r>
       <r>    0.8953    1.0000 </r>
       <r>    1.6735    1.0000 </r>
       <r>    2.2965    1.0000 </r>
       <r>    2.7486    1.0000 </r>
       <r>    3.1157    1.0000 </r>
       <r>    3.8602    1.0000 </r>
       <r>    3.8828    1.0000 </r>
       <r>    4.3365    1.0000 </r>
       <r>    4.7821    1.0000 </r>
       <r>    4.9554    1.0000 </r>
       <r>    7.7637    0.0000 </r>
       <r>    8.1347    0.0000 </r>
       <r>    8.1731    0.0000 </r>
       <r>    8.2770    0.0000 </r>
       <r>    9.1576    0.0000 </r>
       <r>    9.2970    0.0000 </r>
       <r>    9.4304    0.0000 </r>
       <r>    9.4963    0.0000 </r>
      </set>
      <set comment="kpoint 27">
       <r>   -5.1925    1.0000 </r>
       <r>   -5.1925    1.0000 </r>
       <r>   -3.3586    1.0000 </r>
       <r>   -3.3586    1.0000 </r>
       <r>   -0.7144    1.0000 </r>
       <r>   -0.7144    1.0000 </r>
       <r>    1.5831    1.0000 </r>
       <r>    1.5831    1.0000 </r>
       <r>    2.1575    1.0000 </r>
       <r>    2.1575    1.0000 </r>
       <r>    3.3935    1.0000 </r>
       <r>    3.3935    1.0000 </r>
       <r>    4.3648    1.0000 </r>
       <r>    4.3648    1.0000 </r>
       <r>    4.8835    1.0000 </r>
       <r>    4.8835    1.0000 </r>
       <r>    7.9711    0.0000 </r>
       <r>    7.9711    0.0000 </r>
       <r>    8.1431    0.0000 </r>
       <r>    8.1431    0.0000 </r>
       <r>    9.0107    0.0000 </r>
       <r>    9.0107    0.0000 </r>
       <r>    9.7633    0.0000 </r>
       <r>    9.7633    0.0000 </r>
      </set>
      <set comment="kpoint 28">
       <r>   -4.9661    1.0000 </r>
       <r>   -4.1018    1.0000 </r>
       <r>   -4.1018    1.0000 </r>
       <r>   -3.0448    1.0000 </r>
       <r>   -0.8343    1.0000 </r>
       <r>   -0.5342    1.0000 </r>
       <r>   -0.5342    1.0000 </r>
       <r>    1.4824    1.0000 </r>
       <r>    1.6496    1.0000 </r>
       <r>    3.1273    1.0000 </r>
       <r>    3.3958    1.0000 </r>
       <r>    3.6189    1.0000 </r>
       <r>    3.6189    1.0000 </r>
       <r>    4.5537    1.0000 </r>
       <r>    4.5537    1.0000 </r>
       <r>    4.6527    1.0000 </r>
       <r>    8.0295    0.0000 </r>
       <r>    8.0295    0.0000 </r>
       <r>    8.1014    0.0000 </r>
       <r>    8.5276    0.0000 </r>
       <r>    9.1599    0.0000 </r>
       <r>    9.1599    0.0000 </r>
       <r>    9.3238    0.0000 </r>
       <r>    9.5518    0.0000 </r>
      </set>
      <set comment="kpoint 29">
       <r>   -4.9078    1.0000 </r>
       <r>   -4.4598    1.0000 </r>
       <r>   -3.7049    1.0000 </r>
       <r>   -3.1171    1.0000 </r>
       <r>   -0.9265    1.0000 </r>
       <r>   -0.8745    1.0000 </r>
       <r>   -0.0294    1.0000 </r>
       <r>    1.2582    1.0000 </r>
       <r>    1.7670    1.0000 </r>
       <r>    3.0727    1.0000 </r>
       <r>    3.4706    1.0000 </r>
       <r>    3.5421    1.0000 </r>
       <r>    4.0515    1.0000 </r>
       <r>    4.1088    1.0000 </r>
       <r>    4.5873    1.0000 </r>
       <r>    4.6533    1.0000 </r>
       <r>    7.8975    0.0000 </r>
       <r>    8.1656    0.0000 </r>
       <r>    8.3201    0.0000 </r>
       <r>    8.3946    0.0000 </r>
       <r>    8.8936    0.0000 </r>
       <r>    9.0789    0.0000 </r>
       <r>    9.2878    0.0000 </r>
       <r>    9.5478    0.0000 </r>
      </set>
      <set comment="kpoint 30">
       <r>   -4.7357    1.0000 </r>
       <r>   -4.7357    1.0000 </r>
       <r>   -3.3466    1.0000 </r>
       <r>   -3.3466    1.0000 </r>
       <r>   -1.0040    1.0000 </r>
       <r>   -1.0040    1.0000 </r>
       <r>    0.5940    1.0000 </r>
       <r>    0.5940    1.0000 </r>
       <r>    2.4022    1.0000 </r>
       <r>    2.4022    1.0000 </r>
       <r>    3.7045    1.0000 </r>
       <r>    3.7045    1.0000 </r>
       <r>    4.2144    1.0000 </r>
       <r>    4.2144    1.0000 </r>
       <r>    4.3904    1.0000 </r>
       <r>    4.3904    1.0000 </r>
       <r>    8.0427    0.0000 </r>
       <r>    8.0427    0.0000 </r>
       <r>    8.3399    0.0000 </r>
       <r>    8.3399    0.0000 </r>
       <r>    9.0996    0.0000 </r>
       <r>    9.0996    0.0000 </r>
       <r>    9.3305    0.0000 </r>
       <r>    9.3305    0.0000 </r>
      </set>
      <set comment="kpoint 31">
       <r>   -4.3773    1.0000 </r>
       <r>   -3.8154    1.0000 </r>
       <r>   -3.8154    1.0000 </r>
       <r>   -3.7142    1.0000 </r>
       <r>   -1.0658    1.0000 </r>
       <r>   -1.0658    1.0000 </r>
       <r>   -0.1470    1.0000 </r>
       <r>    0.6837    1.0000 </r>
       <r>    1.8232    1.0000 </r>
       <r>    2.3989    1.0000 </r>
       <r>    3.8231    1.0000 </r>
       <r>    3.9333    1.0000 </r>
       <r>    3.9333    1.0000 </r>
       <r>    4.2630    1.0000 </r>
       <r>    4.4653    1.0000 </r>
       <r>    4.4653    1.0000 </r>
       <r>    7.7866    0.0000 </r>
       <r>    7.7866    0.0000 </r>
       <r>    8.5749    0.0000 </r>
       <r>    9.0362    0.0000 </r>
       <r>    9.0459    0.0000 </r>
       <r>    9.0459    0.0000 </r>
       <r>    9.1486    0.0000 </r>
       <r>    9.3897    0.0000 </r>
      </set>
      <set comment="kpoint 32">
       <r>   -4.3308    1.0000 </r>
       <r>   -4.0087    1.0000 </r>
       <r>   -3.6980    1.0000 </r>
       <r>   -3.6932    1.0000 </r>
       <r>   -1.0944    1.0000 </r>
       <r>   -0.7528    1.0000 </r>
       <r>   -0.4023    1.0000 </r>
       <r>    0.3455    1.0000 </r>
       <r>    2.1770    1.0000 </r>
       <r>    2.7944    1.0000 </r>
       <r>    3.5409    1.0000 </r>
       <r>    3.8742    1.0000 </r>
       <r>    4.0201    1.0000 </r>
       <r>    4.2704    1.0000 </r>
       <r>    4.2742    1.0000 </r>
       <r>    4.3386    1.0000 </r>
       <r>    7.8459    0.0000 </r>
       <r>    8.0301    0.0000 </r>
       <r>    8.6124    0.0000 </r>
       <r>    8.6946    0.0000 </r>
       <r>    9.0166    0.0000 </r>
       <r>    9.0172    0.0000 </r>
       <r>    9.0986    0.0000 </r>
       <r>    9.3617    0.0000 </r>
      </set>
      <set comment="kpoint 33">
       <r>   -4.1989    1.0000 </r>
       <r>   -4.1989    1.0000 </r>
       <r>   -3.6711    1.0000 </r>
       <r>   -3.6711    1.0000 </r>
       <r>   -0.8295    1.0000 </r>
       <r>   -0.8295    1.0000 </r>
       <r>   -0.2414    1.0000 </r>
       <r>   -0.2414    1.0000 </r>
       <r>    2.8839    1.0000 </r>
       <r>    2.8839    1.0000 </r>
       <r>    3.5129    1.0000 </r>
       <r>    3.5129    1.0000 </r>
       <r>    4.0275    1.0000 </r>
       <r>    4.0275    1.0000 </r>
       <r>    4.2809    1.0000 </r>
       <r>    4.2809    1.0000 </r>
       <r>    8.1667    0.0000 </r>
       <r>    8.1667    0.0000 </r>
       <r>    8.5044    0.0000 </r>
       <r>    8.5044    0.0000 </r>
       <r>    8.8887    0.0000 </r>
       <r>    8.8887    0.0000 </r>
       <r>    9.0969    0.0000 </r>
       <r>    9.0969    0.0000 </r>
      </set>
      <set comment="kpoint 34">
       <r>   -5.5828    1.0000 </r>
       <r>   -4.5650    1.0000 </r>
       <r>   -4.5650    1.0000 </r>
       <r>   -1.9060    1.0000 </r>
       <r>   -1.9060    1.0000 </r>
       <r>    0.9322    1.0000 </r>
       <r>    0.9322    1.0000 </r>
       <r>    2.0748    1.0000 </r>
       <r>    2.0748    1.0000 </r>
       <r>    2.5484    1.0000 </r>
       <r>    2.5484    1.0000 </r>
       <r>    3.4478    1.0000 </r>
       <r>    4.4358    1.0000 </r>
       <r>    4.4358    1.0000 </r>
       <r>    4.5251    1.0000 </r>
       <r>    4.5251    1.0000 </r>
       <r>    7.3520    0.0000 </r>
       <r>    8.8082    0.0000 </r>
       <r>    8.8082    0.0000 </r>
       <r>    8.8807    0.0000 </r>
       <r>    8.8807    0.0000 </r>
       <r>    9.2558    0.0000 </r>
       <r>    9.2558    0.0000 </r>
       <r>    9.8703    0.0000 </r>
      </set>
      <set comment="kpoint 35">
       <r>   -5.5178    1.0000 </r>
       <r>   -5.0042    1.0000 </r>
       <r>   -4.0158    1.0000 </r>
       <r>   -2.6580    1.0000 </r>
       <r>   -1.1558    1.0000 </r>
       <r>    0.2515    1.0000 </r>
       <r>    1.6293    1.0000 </r>
       <r>    1.9210    1.0000 </r>
       <r>    2.1813    1.0000 </r>
       <r>    2.4466    1.0000 </r>
       <r>    3.0403    1.0000 </r>
       <r>    3.0406    1.0000 </r>
       <r>    3.7723    1.0000 </r>
       <r>    4.1687    1.0000 </r>
       <r>    4.7481    1.0000 </r>
       <r>    5.0456    1.0000 </r>
       <r>    7.7304    0.0000 </r>
       <r>    8.7196    0.0000 </r>
       <r>    8.7383    0.0000 </r>
       <r>    8.9834    0.0000 </r>
       <r>    9.0238    0.0000 </r>
       <r>    9.3843    0.0000 </r>
       <r>    9.5146    0.0000 </r>
       <r>    9.6321    0.0000 </r>
      </set>
      <set comment="kpoint 36">
       <r>   -5.3239    1.0000 </r>
       <r>   -5.3239    1.0000 </r>
       <r>   -3.3723    1.0000 </r>
       <r>   -3.3723    1.0000 </r>
       <r>   -0.4365    1.0000 </r>
       <r>   -0.4365    1.0000 </r>
       <r>    1.9646    1.0000 </r>
       <r>    1.9646    1.0000 </r>
       <r>    2.3463    1.0000 </r>
       <r>    2.3463    1.0000 </r>
       <r>    3.0323    1.0000 </r>
       <r>    3.0323    1.0000 </r>
       <r>    3.6147    1.0000 </r>
       <r>    3.6147    1.0000 </r>
       <r>    5.0944    1.0000 </r>
       <r>    5.0944    1.0000 </r>
       <r>    8.6121    0.0000 </r>
       <r>    8.6121    0.0000 </r>
       <r>    8.8023    0.0000 </r>
       <r>    8.8023    0.0000 </r>
       <r>    9.0435    0.0000 </r>
       <r>    9.0435    0.0000 </r>
       <r>    9.3869    0.0000 </r>
       <r>    9.3869    0.0000 </r>
      </set>
      <set comment="kpoint 37">
       <r>   -5.2308    1.0000 </r>
       <r>   -4.2625    1.0000 </r>
       <r>   -4.2625    1.0000 </r>
       <r>   -2.2560    1.0000 </r>
       <r>   -1.5223    1.0000 </r>
       <r>    0.2949    1.0000 </r>
       <r>    0.2949    1.0000 </r>
       <r>    1.6638    1.0000 </r>
       <r>    2.3595    1.0000 </r>
       <r>    2.4407    1.0000 </r>
       <r>    2.4407    1.0000 </r>
       <r>    2.4778    1.0000 </r>
       <r>    3.9041    1.0000 </r>
       <r>    4.1782    1.0000 </r>
       <r>    4.5242    1.0000 </r>
       <r>    4.5242    1.0000 </r>
       <r>    7.2485    0.0000 </r>
       <r>    8.3503    0.0000 </r>
       <r>    8.3503    0.0000 </r>
       <r>    9.0911    0.0000 </r>
       <r>    9.3354    0.0000 </r>
       <r>    9.9086    0.0000 </r>
       <r>    9.9086    0.0000 </r>
       <r>   10.3696    0.0000 </r>
      </set>
      <set comment="kpoint 38">
       <r>   -5.1683    1.0000 </r>
       <r>   -4.6770    1.0000 </r>
       <r>   -3.7551    1.0000 </r>
       <r>   -2.6074    1.0000 </r>
       <r>   -1.2190    1.0000 </r>
       <r>   -0.2477    1.0000 </r>
       <r>    0.8945    1.0000 </r>
       <r>    1.6773    1.0000 </r>
       <r>    2.0523    1.0000 </r>
       <r>    2.1541    1.0000 </r>
       <r>    2.6020    1.0000 </r>
       <r>    2.9297    1.0000 </r>
       <r>    3.9156    1.0000 </r>
       <r>    3.9501    1.0000 </r>
       <r>    4.1726    1.0000 </r>
       <r>    4.7479    1.0000 </r>
       <r>    7.5347    0.0000 </r>
       <r>    8.5572    0.0000 </r>
       <r>    8.6336    0.0000 </r>
       <r>    9.1439    0.0000 </r>
       <r>    9.3331    0.0000 </r>
       <r>    9.5476    0.0000 </r>
       <r>    9.5894    0.0000 </r>
       <r>    9.9026    0.0000 </r>
      </set>
      <set comment="kpoint 39">
       <r>   -4.9820    1.0000 </r>
       <r>   -4.9820    1.0000 </r>
       <r>   -3.1837    1.0000 </r>
       <r>   -3.1837    1.0000 </r>
       <r>   -0.7463    1.0000 </r>
       <r>   -0.7463    1.0000 </r>
       <r>    1.5374    1.0000 </r>
       <r>    1.5374    1.0000 </r>
       <r>    1.7931    1.0000 </r>
       <r>    1.7931    1.0000 </r>
       <r>    3.1911    1.0000 </r>
       <r>    3.1911    1.0000 </r>
       <r>    3.4695    1.0000 </r>
       <r>    3.4695    1.0000 </r>
       <r>    4.5622    1.0000 </r>
       <r>    4.5622    1.0000 </r>
       <r>    8.2479    0.0000 </r>
       <r>    8.2479    0.0000 </r>
       <r>    9.0974    0.0000 </r>
       <r>    9.0974    0.0000 </r>
       <r>    9.3572    0.0000 </r>
       <r>    9.3572    0.0000 </r>
       <r>    9.4430    0.0000 </r>
       <r>    9.4430    0.0000 </r>
      </set>
      <set comment="kpoint 40">
       <r>   -4.7508    1.0000 </r>
       <r>   -3.8986    1.0000 </r>
       <r>   -3.8986    1.0000 </r>
       <r>   -2.8224    1.0000 </r>
       <r>   -0.9887    1.0000 </r>
       <r>   -0.4585    1.0000 </r>
       <r>   -0.4585    1.0000 </r>
       <r>    1.4488    1.0000 </r>
       <r>    1.6605    1.0000 </r>
       <r>    2.6710    1.0000 </r>
       <r>    2.6710    1.0000 </r>
       <r>    2.7322    1.0000 </r>
       <r>    3.2190    1.0000 </r>
       <r>    3.9335    1.0000 </r>
       <r>    4.3461    1.0000 </r>
       <r>    4.3461    1.0000 </r>
       <r>    7.5299    0.0000 </r>
       <r>    8.1595    0.0000 </r>
       <r>    8.1595    0.0000 </r>
       <r>    9.0552    0.0000 </r>
       <r>    9.4373    0.0000 </r>
       <r>    9.6973    0.0000 </r>
       <r>    9.6973    0.0000 </r>
       <r>    9.7299    0.0000 </r>
      </set>
      <set comment="kpoint 41">
       <r>   -4.6933    1.0000 </r>
       <r>   -4.2518    1.0000 </r>
       <r>   -3.5047    1.0000 </r>
       <r>   -2.9010    1.0000 </r>
       <r>   -1.0188    1.0000 </r>
       <r>   -0.8151    1.0000 </r>
       <r>    0.0316    1.0000 </r>
       <r>    1.1666    1.0000 </r>
       <r>    1.7552    1.0000 </r>
       <r>    2.2936    1.0000 </r>
       <r>    2.9321    1.0000 </r>
       <r>    3.0791    1.0000 </r>
       <r>    3.4100    1.0000 </r>
       <r>    3.8891    1.0000 </r>
       <r>    4.0233    1.0000 </r>
       <r>    4.2948    1.0000 </r>
       <r>    7.5525    0.0000 </r>
       <r>    7.9852    0.0000 </r>
       <r>    8.4899    0.0000 </r>
       <r>    8.9916    0.0000 </r>
       <r>    9.0488    0.0000 </r>
       <r>    9.4459    0.0000 </r>
       <r>    9.5703    0.0000 </r>
       <r>    9.9489    0.0000 </r>
      </set>
      <set comment="kpoint 42">
       <r>   -4.5237    1.0000 </r>
       <r>   -4.5237    1.0000 </r>
       <r>   -3.1422    1.0000 </r>
       <r>   -3.1422    1.0000 </r>
       <r>   -1.0008    1.0000 </r>
       <r>   -1.0008    1.0000 </r>
       <r>    0.6056    1.0000 </r>
       <r>    0.6056    1.0000 </r>
       <r>    1.9828    1.0000 </r>
       <r>    1.9828    1.0000 </r>
       <r>    3.4251    1.0000 </r>
       <r>    3.4251    1.0000 </r>
       <r>    3.4463    1.0000 </r>
       <r>    3.4463    1.0000 </r>
       <r>    4.0228    1.0000 </r>
       <r>    4.0228    1.0000 </r>
       <r>    7.8547    0.0000 </r>
       <r>    7.8547    0.0000 </r>
       <r>    8.3267    0.0000 </r>
       <r>    8.3267    0.0000 </r>
       <r>    9.7158    0.0000 </r>
       <r>    9.7158    0.0000 </r>
       <r>    9.9184    0.0000 </r>
       <r>    9.9184    0.0000 </r>
      </set>
      <set comment="kpoint 43">
       <r>   -4.1607    1.0000 </r>
       <r>   -3.6034    1.0000 </r>
       <r>   -3.6034    1.0000 </r>
       <r>   -3.4954    1.0000 </r>
       <r>   -0.9789    1.0000 </r>
       <r>   -0.9789    1.0000 </r>
       <r>   -0.3095    1.0000 </r>
       <r>    0.5077    1.0000 </r>
       <r>    1.9918    1.0000 </r>
       <r>    2.5438    1.0000 </r>
       <r>    2.9516    1.0000 </r>
       <r>    2.9516    1.0000 </r>
       <r>    3.1583    1.0000 </r>
       <r>    3.5820    1.0000 </r>
       <r>    4.0899    1.0000 </r>
       <r>    4.0899    1.0000 </r>
       <r>    8.0791    0.0000 </r>
       <r>    8.3254    0.0000 </r>
       <r>    8.3254    0.0000 </r>
       <r>    8.8271    0.0000 </r>
       <r>    9.0173    0.0000 </r>
       <r>    9.0173    0.0000 </r>
       <r>    9.1227    0.0000 </r>
       <r>    9.4636    0.0000 </r>
      </set>
      <set comment="kpoint 44">
       <r>   -4.1148    1.0000 </r>
       <r>   -3.7961    1.0000 </r>
       <r>   -3.4799    1.0000 </r>
       <r>   -3.4797    1.0000 </r>
       <r>   -1.0248    1.0000 </r>
       <r>   -0.6797    1.0000 </r>
       <r>   -0.4839    1.0000 </r>
       <r>    0.2668    1.0000 </r>
       <r>    2.1387    1.0000 </r>
       <r>    2.7053    1.0000 </r>
       <r>    2.7205    1.0000 </r>
       <r>    3.0724    1.0000 </r>
       <r>    3.3106    1.0000 </r>
       <r>    3.6553    1.0000 </r>
       <r>    3.9946    1.0000 </r>
       <r>    4.0166    1.0000 </r>
       <r>    7.7900    0.0000 </r>
       <r>    7.8016    0.0000 </r>
       <r>    8.0275    0.0000 </r>
       <r>    8.2826    0.0000 </r>
       <r>    9.4238    0.0000 </r>
       <r>    9.7052    0.0000 </r>
       <r>    9.9332    0.0000 </r>
       <r>   10.0013    0.0000 </r>
      </set>
      <set comment="kpoint 45">
       <r>   -3.9844    1.0000 </r>
       <r>   -3.9844    1.0000 </r>
       <r>   -3.4548    1.0000 </r>
       <r>   -3.4548    1.0000 </r>
       <r>   -0.8129    1.0000 </r>
       <r>   -0.8129    1.0000 </r>
       <r>   -0.2181    1.0000 </r>
       <r>   -0.2181    1.0000 </r>
       <r>    2.4206    1.0000 </r>
       <r>    2.4206    1.0000 </r>
       <r>    2.9823    1.0000 </r>
       <r>    2.9823    1.0000 </r>
       <r>    3.6875    1.0000 </r>
       <r>    3.6875    1.0000 </r>
       <r>    3.8325    1.0000 </r>
       <r>    3.8325    1.0000 </r>
       <r>    7.6493    0.0000 </r>
       <r>    7.6493    0.0000 </r>
       <r>    7.8050    0.0000 </r>
       <r>    7.8050    0.0000 </r>
       <r>   10.0867    0.0000 </r>
       <r>   10.0867    0.0000 </r>
       <r>   10.2826    0.0000 </r>
       <r>   10.2826    0.0000 </r>
      </set>
      <set comment="kpoint 46">
       <r>   -4.8782    1.0000 </r>
       <r>   -3.9525    1.0000 </r>
       <r>   -3.9525    1.0000 </r>
       <r>   -1.8796    1.0000 </r>
       <r>   -1.8796    1.0000 </r>
       <r>    0.0836    1.0000 </r>
       <r>    0.0836    1.0000 </r>
       <r>    1.8314    1.0000 </r>
       <r>    1.8953    1.0000 </r>
       <r>    1.8953    1.0000 </r>
       <r>    1.9508    1.0000 </r>
       <r>    1.9508    1.0000 </r>
       <r>    3.7177    1.0000 </r>
       <r>    3.7177    1.0000 </r>
       <r>    4.2947    1.0000 </r>
       <r>    4.2947    1.0000 </r>
       <r>    6.7622    0.0000 </r>
       <r>    8.1243    0.0000 </r>
       <r>    8.1243    0.0000 </r>
       <r>    8.5548    0.0000 </r>
       <r>    9.7400    0.0000 </r>
       <r>    9.7400    0.0000 </r>
       <r>   10.5624    0.0000 </r>
       <r>   10.5624    0.0000 </r>
      </set>
      <set comment="kpoint 47">
       <r>   -4.8178    1.0000 </r>
       <r>   -4.3463    1.0000 </r>
       <r>   -3.4760    1.0000 </r>
       <r>   -2.4018    1.0000 </r>
       <r>   -1.3922    1.0000 </r>
       <r>   -0.4352    1.0000 </r>
       <r>    0.6331    1.0000 </r>
       <r>    1.5902    1.0000 </r>
       <r>    1.5912    1.0000 </r>
       <r>    1.6363    1.0000 </r>
       <r>    2.3515    1.0000 </r>
       <r>    2.5386    1.0000 </r>
       <r>    3.4535    1.0000 </r>
       <r>    3.8314    1.0000 </r>
       <r>    3.9346    1.0000 </r>
       <r>    4.2771    1.0000 </r>
       <r>    7.1537    0.0000 </r>
       <r>    7.8750    0.0000 </r>
       <r>    8.7958    0.0000 </r>
       <r>    8.8668    0.0000 </r>
       <r>    8.9425    0.0000 </r>
       <r>    9.2629    0.0000 </r>
       <r>   10.5073    0.0000 </r>
       <r>   10.5316    0.0000 </r>
      </set>
      <set comment="kpoint 48">
       <r>   -4.6385    1.0000 </r>
       <r>   -4.6385    1.0000 </r>
       <r>   -2.9462    1.0000 </r>
       <r>   -2.9462    1.0000 </r>
       <r>   -0.9208    1.0000 </r>
       <r>   -0.9208    1.0000 </r>
       <r>    1.1797    1.0000 </r>
       <r>    1.1797    1.0000 </r>
       <r>    1.4776    1.0000 </r>
       <r>    1.4776    1.0000 </r>
       <r>    2.9077    1.0000 </r>
       <r>    2.9077    1.0000 </r>
       <r>    3.2624    1.0000 </r>
       <r>    3.2624    1.0000 </r>
       <r>    4.0677    1.0000 </r>
       <r>    4.0677    1.0000 </r>
       <r>    8.0797    0.0000 </r>
       <r>    8.0797    0.0000 </r>
       <r>    8.1915    0.0000 </r>
       <r>    8.1915    0.0000 </r>
       <r>    9.4706    0.0000 </r>
       <r>    9.4706    0.0000 </r>
       <r>   10.0845    0.0000 </r>
       <r>   10.0845    0.0000 </r>
      </set>
      <set comment="kpoint 49">
       <r>   -4.3968    1.0000 </r>
       <r>   -3.5741    1.0000 </r>
       <r>   -3.5741    1.0000 </r>
       <r>   -2.4550    1.0000 </r>
       <r>   -1.3581    1.0000 </r>
       <r>   -0.4523    1.0000 </r>
       <r>   -0.4523    1.0000 </r>
       <r>    0.9563    1.0000 </r>
       <r>    1.8906    1.0000 </r>
       <r>    1.8906    1.0000 </r>
       <r>    1.9424    1.0000 </r>
       <r>    2.3230    1.0000 </r>
       <r>    3.2918    1.0000 </r>
       <r>    3.4493    1.0000 </r>
       <r>    3.8913    1.0000 </r>
       <r>    3.8913    1.0000 </r>
       <r>    6.7637    0.0000 </r>
       <r>    8.0848    0.0000 </r>
       <r>    8.2266    0.0000 </r>
       <r>    8.2266    0.0000 </r>
       <r>    8.7435    0.0000 </r>
       <r>    8.9500    0.0000 </r>
       <r>   10.0437    0.0000 </r>
       <r>   10.0437    0.0000 </r>
      </set>
      <set comment="kpoint 50">
       <r>   -4.3411    1.0000 </r>
       <r>   -3.9147    1.0000 </r>
       <r>   -3.1911    1.0000 </r>
       <r>   -2.5547    1.0000 </r>
       <r>   -1.2992    1.0000 </r>
       <r>   -0.8355    1.0000 </r>
       <r>   -0.0039    1.0000 </r>
       <r>    0.8141    1.0000 </r>
       <r>    1.6211    1.0000 </r>
       <r>    1.6820    1.0000 </r>
       <r>    2.2846    1.0000 </r>
       <r>    2.7792    1.0000 </r>
       <r>    3.1055    1.0000 </r>
       <r>    3.5062    1.0000 </r>
       <r>    3.7492    1.0000 </r>
       <r>    3.8345    1.0000 </r>
       <r>    7.0098    0.0000 </r>
       <r>    7.5461    0.0000 </r>
       <r>    8.0090    0.0000 </r>
       <r>    8.4191    0.0000 </r>
       <r>    8.7714    0.0000 </r>
       <r>    9.3415    0.0000 </r>
       <r>    9.8890    0.0000 </r>
       <r>   10.4558    0.0000 </r>
      </set>
      <set comment="kpoint 51">
       <r>   -4.1771    1.0000 </r>
       <r>   -4.1771    1.0000 </r>
       <r>   -2.8247    1.0000 </r>
       <r>   -2.8247    1.0000 </r>
       <r>   -1.1229    1.0000 </r>
       <r>   -1.1229    1.0000 </r>
       <r>    0.4518    1.0000 </r>
       <r>    0.4518    1.0000 </r>
       <r>    1.5366    1.0000 </r>
       <r>    1.5366    1.0000 </r>
       <r>    2.7255    1.0000 </r>
       <r>    2.7255    1.0000 </r>
       <r>    3.4129    1.0000 </r>
       <r>    3.4129    1.0000 </r>
       <r>    3.5980    1.0000 </r>
       <r>    3.5980    1.0000 </r>
       <r>    7.5082    0.0000 </r>
       <r>    7.5082    0.0000 </r>
       <r>    7.7191    0.0000 </r>
       <r>    7.7191    0.0000 </r>
       <r>    9.2741    0.0000 </r>
       <r>    9.2741    0.0000 </r>
       <r>   10.6575    0.0000 </r>
       <r>   10.6575    0.0000 </r>
      </set>
      <set comment="kpoint 52">
       <r>   -3.8044    1.0000 </r>
       <r>   -3.2584    1.0000 </r>
       <r>   -3.2584    1.0000 </r>
       <r>   -3.1349    1.0000 </r>
       <r>   -0.9260    1.0000 </r>
       <r>   -0.9260    1.0000 </r>
       <r>   -0.6991    1.0000 </r>
       <r>    0.0831    1.0000 </r>
       <r>    2.0955    1.0000 </r>
       <r>    2.0955    1.0000 </r>
       <r>    2.2509    1.0000 </r>
       <r>    2.7394    1.0000 </r>
       <r>    2.7457    1.0000 </r>
       <r>    3.1355    1.0000 </r>
       <r>    3.5189    1.0000 </r>
       <r>    3.5189    1.0000 </r>
       <r>    7.1727    0.0000 </r>
       <r>    7.8583    0.0000 </r>
       <r>    8.0216    0.0000 </r>
       <r>    8.3404    0.0000 </r>
       <r>    8.6377    0.0000 </r>
       <r>    8.6377    0.0000 </r>
       <r>    9.2769    0.0000 </r>
       <r>    9.2769    0.0000 </r>
      </set>
      <set comment="kpoint 53">
       <r>   -3.7596    1.0000 </r>
       <r>   -3.4488    1.0000 </r>
       <r>   -3.1315    1.0000 </r>
       <r>   -3.1208    1.0000 </r>
       <r>   -1.0122    1.0000 </r>
       <r>   -0.7677    1.0000 </r>
       <r>   -0.6629    1.0000 </r>
       <r>   -0.0299    1.0000 </r>
       <r>    1.9403    1.0000 </r>
       <r>    2.0349    1.0000 </r>
       <r>    2.2509    1.0000 </r>
       <r>    2.5546    1.0000 </r>
       <r>    3.0883    1.0000 </r>
       <r>    3.3387    1.0000 </r>
       <r>    3.4666    1.0000 </r>
       <r>    3.6041    1.0000 </r>
       <r>    7.0506    0.0000 </r>
       <r>    7.3782    0.0000 </r>
       <r>    7.6507    0.0000 </r>
       <r>    8.1128    0.0000 </r>
       <r>    8.5717    0.0000 </r>
       <r>    9.1145    0.0000 </r>
       <r>    9.8988    0.0000 </r>
       <r>   10.6142    0.0000 </r>
      </set>
      <set comment="kpoint 54">
       <r>   -3.6327    1.0000 </r>
[...]
       <r>   -2.6216    1.0000 </r>
       <r>   -2.6216    1.0000 </r>
       <r>   -1.2923    1.0000 </r>
       <r>   -1.2923    1.0000 </r>
       <r>   -0.7097    1.0000 </r>
       <r>   -0.7097    1.0000 </r>
       <r>    1.7292    1.0000 </r>
       <r>    1.7292    1.0000 </r>
       <r>    2.1688    1.0000 </r>
       <r>    2.1688    1.0000 </r>
       <r>    2.9917    1.0000 </r>
       <r>    2.9917    1.0000 </r>
       <r>    3.2083    1.0000 </r>
       <r>    3.2083    1.0000 </r>
       <r>    6.9876    0.0000 </r>
       <r>    6.9876    0.0000 </r>
       <r>    7.3464    0.0000 </r>
       <r>    7.3464    0.0000 </r>
       <r>    8.6259    0.0000 </r>
       <r>    8.6259    0.0000 </r>
       <r>    9.2604    0.0000 </r>
       <r>    9.2604    0.0000 </r>
      </set>
      <set comment="kpoint 61">
       <r>   -2.7131    1.0000 </r>
       <r>   -2.3005    1.0000 </r>
       <r>   -2.3005    1.0000 </r>
       <r>   -2.0249    1.0000 </r>
       <r>   -2.0249    1.0000 </r>
       <r>   -1.4701    1.0000 </r>
       <r>   -1.4701    1.0000 </r>
       <r>   -1.3173    1.0000 </r>
       <r>    1.6877    1.0000 </r>
       <r>    1.6877    1.0000 </r>
       <r>    2.3081    1.0000 </r>
       <r>    2.3081    1.0000 </r>
       <r>    2.8204    1.0000 </r>
       <r>    2.8204    1.0000 </r>
       <r>    2.9558    1.0000 </r>
       <r>    2.9558    1.0000 </r>
       <r>    6.3641    0.0000 </r>
       <r>    6.6724    0.0000 </r>
       <r>    6.6724    0.0000 </r>
       <r>    6.6901    0.0000 </r>
       <r>    9.5466    0.0000 </r>
       <r>    9.5466    0.0000 </r>
       <r>   10.1747    0.0000 </r>
       <r>   10.1747    0.0000 </r>
      </set>
      <set comment="kpoint 62">
       <r>   -2.6779    1.0000 </r>
       <r>   -2.4417    1.0000 </r>
       <r>   -2.1924    1.0000 </r>
       <r>   -2.0838    1.0000 </r>
       <r>   -1.9279    1.0000 </r>
       <r>   -1.6243    1.0000 </r>
       <r>   -1.3645    1.0000 </r>
       <r>   -1.3148    1.0000 </r>
       <r>    1.7027    1.0000 </r>
       <r>    1.9119    1.0000 </r>
       <r>    2.3119    1.0000 </r>
       <r>    2.3888    1.0000 </r>
       <r>    2.5045    1.0000 </r>
       <r>    2.7439    1.0000 </r>
       <r>    2.8066    1.0000 </r>
       <r>    2.9871    1.0000 </r>
       <r>    6.5975    0.0000 </r>
       <r>    6.7353    0.0000 </r>
       <r>    7.0286    0.0000 </r>
       <r>    7.3604    0.0000 </r>
       <r>    8.2846    0.0000 </r>
       <r>    8.8615    0.0000 </r>
       <r>    9.0631    0.0000 </r>
       <r>    9.6683    0.0000 </r>
      </set>
      <set comment="kpoint 63">
       <r>   -2.5797    1.0000 </r>
       <r>   -2.5797    1.0000 </r>
       <r>   -2.1280    1.0000 </r>
       <r>   -2.1280    1.0000 </r>
       <r>   -1.7887    1.0000 </r>
       <r>   -1.7887    1.0000 </r>
       <r>   -1.3203    1.0000 </r>
       <r>   -1.3203    1.0000 </r>
       <r>    1.9603    1.0000 </r>
       <r>    1.9603    1.0000 </r>
       <r>    2.3095    1.0000 </r>
       <r>    2.3095    1.0000 </r>
       <r>    2.5159    1.0000 </r>
       <r>    2.5159    1.0000 </r>
       <r>    2.8021    1.0000 </r>
       <r>    2.8021    1.0000 </r>
       <r>    7.2143    0.0000 </r>
       <r>    7.2143    0.0000 </r>
       <r>    7.6514    0.0000 </r>
       <r>    7.6514    0.0000 </r>
       <r>    7.8949    0.0000 </r>
       <r>    7.8949    0.0000 </r>
       <r>    8.4129    0.0000 </r>
       <r>    8.4129    0.0000 </r>
      </set>
     </set>
    </set>
   </array>
  </eigenvalues>
  <separator name="orbital magnetization" >
   <v name="MAGDIPOLOUT">      0.00000000      0.00000000      0.00000000</v>
  </separator>
  <dos>
   <i name="efermi">      5.83445896 </i>
   <total>
    <array>
     <dimension dim="1">gridpoints</dimension>
     <dimension dim="2">spin</dimension>
     <field>energy</field>
     <field>total</field>
     <field>integrated</field>
     <set>
      <set comment="spin 1">
       <r>    -6.9954     0.0000     0.0000 </r>
       <r>    -6.9338     0.0000     0.0000 </r>
       <r>    -6.8721     0.0000     0.0000 </r>
       <r>    -6.8105     0.0000     0.0000 </r>
       <r>    -6.7488     0.0000     0.0000 </r>
       <r>    -6.6872     0.0000     0.0000 </r>
       <r>    -6.6255     0.0000     0.0000 </r>
       <r>    -6.5639     0.0000     0.0000 </r>
       <r>    -6.5023     0.0000     0.0000 </r>
       <r>    -6.4406     0.0000     0.0000 </r>
       <r>    -6.3790     0.0000     0.0000 </r>
       <r>    -6.3173     0.0000     0.0000 </r>
       <r>    -6.2557     0.0000     0.0000 </r>
       <r>    -6.1940     0.0000     0.0000 </r>
       <r>    -6.1324     0.0670     0.0041 </r>
       <r>    -6.0707     0.3896     0.0281 </r>
       <r>    -6.0091     0.6129     0.0659 </r>
       <r>    -5.9474     0.3685     0.0886 </r>
       <r>    -5.8858     0.4244     0.1148 </r>
       <r>    -5.8242     0.3824     0.1384 </r>
       <r>    -5.7625     1.5774     0.2356 </r>
       <r>    -5.7009     1.6074     0.3347 </r>
       <r>    -5.6392     0.0000     0.3347 </r>
       <r>    -5.5776     0.7423     0.3805 </r>
       <r>    -5.5159     1.7431     0.4879 </r>
       <r>    -5.4543     1.1713     0.5601 </r>
       <r>    -5.3926     1.3686     0.6445 </r>
       <r>    -5.3310     1.0914     0.7118 </r>
       <r>    -5.2693     1.0049     0.7737 </r>
       <r>    -5.2077     1.5952     0.8721 </r>
       <r>    -5.1461     2.6773     1.0371 </r>
       <r>    -5.0844     0.0326     1.0392 </r>
       <r>    -5.0228     0.4307     1.0658 </r>
       <r>    -4.9611     3.0896     1.2562 </r>
       <r>    -4.8995     2.0866     1.3851 </r>
       <r>    -4.8378     1.4754     1.4760 </r>
       <r>    -4.7762     1.6006     1.5747 </r>
       <r>    -4.7145     2.6760     1.7397 </r>
       <r>    -4.6529     2.1546     1.8726 </r>
       <r>    -4.5913     0.5249     1.9050 </r>
       <r>    -4.5296     1.1908     1.9784 </r>
       <r>    -4.4680     1.8696     2.0936 </r>
       <r>    -4.4063     2.9277     2.2741 </r>
       <r>    -4.3447     2.5932     2.4341 </r>
       <r>    -4.2830     2.0328     2.5594 </r>
       <r>    -4.2214     3.1932     2.7562 </r>
       <r>    -4.1597     4.0105     3.0035 </r>
       <r>    -4.0981     2.0951     3.1326 </r>
       <r>    -4.0364     0.8660     3.1860 </r>
       <r>    -3.9748     3.1235     3.3786 </r>
       <r>    -3.9132     2.4868     3.5319 </r>
       <r>    -3.8515     2.6566     3.6956 </r>
       <r>    -3.7899     2.6182     3.8570 </r>
       <r>    -3.7282     4.9296     4.1609 </r>
       <r>    -3.6666     5.8490     4.5215 </r>
       <r>    -3.6049     1.9734     4.6431 </r>
       <r>    -3.5433     2.2440     4.7815 </r>
       <r>    -3.4816     3.6538     5.0067 </r>
       <r>    -3.4200     4.8240     5.3041 </r>
       <r>    -3.3584     1.7590     5.4126 </r>
       <r>    -3.2967     2.0883     5.5413 </r>
       <r>    -3.2351     2.1436     5.6735 </r>
       <r>    -3.1734     2.6702     5.8382 </r>
       <r>    -3.1118     6.3793     6.2314 </r>
       <r>    -3.0501     1.5258     6.3257 </r>
       <r>    -2.9885     0.6260     6.3643 </r>
       <r>    -2.9268     1.5541     6.4601 </r>
       <r>    -2.8652     2.0789     6.5883 </r>
       <r>    -2.8035     3.5981     6.8101 </r>
       <r>    -2.7419     2.8755     6.9876 </r>
       <r>    -2.6803     0.5076     7.0189 </r>
       <r>    -2.6186     4.2304     7.2797 </r>
       <r>    -2.5570     2.5343     7.4359 </r>
       <r>    -2.4953     1.2384     7.5123 </r>
       <r>    -2.4337     1.6075     7.6114 </r>
       <r>    -2.3720     0.6053     7.6488 </r>
       <r>    -2.3104     0.0433     7.6514 </r>
       <r>    -2.2487     0.9478     7.7099 </r>
       <r>    -2.1871     1.3013     7.7901 </r>
       <r>    -2.1255     0.9737     7.8501 </r>
       <r>    -2.0638     0.9760     7.9103 </r>
       <r>    -2.0022     0.7650     7.9575 </r>
       <r>    -1.9405     1.2432     8.0342 </r>
       <r>    -1.8789     1.4111     8.1212 </r>
       <r>    -1.8172     0.2465     8.1364 </r>
       <r>    -1.7556     0.9256     8.1934 </r>
       <r>    -1.6939     0.4921     8.2238 </r>
       <r>    -1.6323     0.5281     8.2563 </r>
       <r>    -1.5706     0.4674     8.2851 </r>
       <r>    -1.5090     0.5201     8.3172 </r>
       <r>    -1.4474     0.5521     8.3512 </r>
       <r>    -1.3857     0.9488     8.4097 </r>
       <r>    -1.3241     2.3367     8.5538 </r>
       <r>    -1.2624     4.7585     8.8471 </r>
       <r>    -1.2008     2.1391     8.9790 </r>
       <r>    -1.1391     0.8635     9.0322 </r>
       <r>    -1.0775     6.6249     9.4406 </r>
       <r>    -1.0158     5.7622     9.7959 </r>
       <r>    -0.9542     5.1203    10.1116 </r>
       <r>    -0.8926     4.8700    10.4118 </r>
       <r>    -0.8309     4.2640    10.6748 </r>
       <r>    -0.7693     4.4489    10.9490 </r>
       <r>    -0.7076     4.9743    11.2557 </r>
       <r>    -0.6460     3.6862    11.4829 </r>
       <r>    -0.5843     1.1436    11.5534 </r>
       <r>    -0.5227     2.0273    11.6784 </r>
       <r>    -0.4610     1.6285    11.7788 </r>
       <r>    -0.3994     3.4964    11.9944 </r>
       <r>    -0.3377     1.1786    12.0670 </r>
       <r>    -0.2761     3.4119    12.2774 </r>
       <r>    -0.2145     5.0285    12.5874 </r>
       <r>    -0.1528     0.4369    12.6143 </r>
       <r>    -0.0912     0.9807    12.6747 </r>
       <r>    -0.0295     2.8497    12.8504 </r>
       <r>     0.0321     2.9200    13.0304 </r>
       <r>     0.0938     1.5090    13.1234 </r>
       <r>     0.1554     0.3475    13.1449 </r>
       <r>     0.2171     0.3611    13.1671 </r>
       <r>     0.2787     2.5560    13.3247 </r>
       <r>     0.3403     2.1692    13.4584 </r>
       <r>     0.4020     1.3449    13.5413 </r>
       <r>     0.4636     2.2894    13.6825 </r>
       <r>     0.5253     0.9245    13.7395 </r>
       <r>     0.5869     0.6795    13.7813 </r>
       <r>     0.6486     2.5339    13.9375 </r>
       <r>     0.7102     0.5508    13.9715 </r>
       <r>     0.7719     0.2612    13.9876 </r>
       <r>     0.8335     1.0693    14.0535 </r>
       <r>     0.8952     2.1736    14.1877 </r>
       <r>     0.9568     1.8761    14.3035 </r>
       <r>     1.0184     0.7746    14.3512 </r>
       <r>     1.0801     0.0000    14.3512 </r>
       <r>     1.1417     0.1473    14.3603 </r>
       <r>     1.2034     3.2025    14.5578 </r>
       <r>     1.2650     1.0853    14.6248 </r>
       <r>     1.3267     0.5235    14.6570 </r>
       <r>     1.3883     0.1390    14.6656 </r>
       <r>     1.4500     1.3915    14.7514 </r>
       <r>     1.5116     2.2236    14.8884 </r>
       <r>     1.5732     2.8119    15.0618 </r>
       <r>     1.6349     5.3606    15.3922 </r>
       <r>     1.6965     7.5743    15.8592 </r>
       <r>     1.7582     2.9615    16.0420 </r>
       <r>     1.8198     3.9967    16.2884 </r>
       <r>     1.8815     2.5308    16.4444 </r>
       <r>     1.9431     6.5900    16.8507 </r>
       <r>     2.0048     6.0564    17.2241 </r>
       <r>     2.0664     2.3692    17.3702 </r>
       <r>     2.1281     2.7132    17.5374 </r>
       <r>     2.1897     6.2559    17.9231 </r>
       <r>     2.2513     1.1422    17.9936 </r>
       <r>     2.3130     7.4200    18.4510 </r>
       <r>     2.3746     4.3335    18.7183 </r>
       <r>     2.4363     4.0107    18.9656 </r>
       <r>     2.4979     2.4660    19.1176 </r>
       <r>     2.5596     4.7981    19.4135 </r>
       <r>     2.6212     3.9529    19.6572 </r>
       <r>     2.6829     3.8738    19.8962 </r>
       <r>     2.7445     7.5733    20.3631 </r>
       <r>     2.8061     5.4069    20.6966 </r>
       <r>     2.8678     4.1490    20.9525 </r>
       <r>     2.9294     4.8246    21.2500 </r>
       <r>     2.9911     6.6870    21.6622 </r>
       <r>     3.0527     5.3105    21.9896 </r>
       <r>     3.1144     9.3947    22.5688 </r>
       <r>     3.1760     6.3050    22.9576 </r>
       <r>     3.2377     5.5460    23.2995 </r>
       <r>     3.2993     1.0894    23.3669 </r>
       <r>     3.3610     3.9082    23.6078 </r>
       <r>     3.4226     6.8167    24.0280 </r>
       <r>     3.4842     9.8462    24.6351 </r>
       <r>     3.5459     7.4287    25.0930 </r>
       <r>     3.6075     3.7637    25.3250 </r>
       <r>     3.6692     4.5257    25.6040 </r>
       <r>     3.7308     4.5095    25.8820 </r>
       <r>     3.7925     3.5432    26.1004 </r>
       <r>     3.8541     4.2715    26.3638 </r>
       <r>     3.9158     8.7322    26.9024 </r>
       <r>     3.9774     5.7899    27.2594 </r>
       <r>     4.0390     7.0101    27.6915 </r>
       <r>     4.1007     3.2550    27.8925 </r>
       <r>     4.1623     1.3233    27.9741 </r>
       <r>     4.2240     4.2952    28.2388 </r>
       <r>     4.2856     5.3082    28.5661 </r>
       <r>     4.3473     7.4108    29.0229 </r>
       <r>     4.4089     5.3198    29.3509 </r>
       <r>     4.4706     3.8651    29.5894 </r>
       <r>     4.5322     3.8886    29.8292 </r>
       <r>     4.5939     4.4026    30.1006 </r>
       <r>     4.6555     3.3511    30.3071 </r>
       <r>     4.7171     2.9906    30.4915 </r>
       <r>     4.7788     2.7470    30.6610 </r>
       <r>     4.8404     1.8128    30.7727 </r>
       <r>     4.9021     2.6110    30.9337 </r>
       <r>     4.9637     2.1757    31.0681 </r>
       <r>     5.0254     2.9750    31.2515 </r>
       <r>     5.0870     1.7027    31.3565 </r>
       <r>     5.1487     2.8600    31.5328 </r>
       <r>     5.2103     1.0689    31.5991 </r>
       <r>     5.2719     0.5017    31.6301 </r>
       <r>     5.3336     0.6665    31.6712 </r>
       <r>     5.3952     1.2048    31.7455 </r>
       <r>     5.4569     0.9296    31.8028 </r>
       <r>     5.5185     1.3895    31.8884 </r>
       <r>     5.5802     0.2483    31.9037 </r>
       <r>     5.6418     1.0924    31.9711 </r>
       <r>     5.7035     0.0019    31.9712 </r>
       <r>     5.7651     0.4577    31.9994 </r>
       <r>     5.8268     0.0096    32.0000 </r>
       <r>     5.8884     0.0000    32.0000 </r>
       <r>     5.9500     0.0000    32.0000 </r>
       <r>     6.0117     0.0000    32.0000 </r>
       <r>     6.0733     0.0000    32.0000 </r>
       <r>     6.1350     0.0000    32.0000 </r>
       <r>     6.1966     0.0000    32.0000 </r>
       <r>     6.2583     0.0000    32.0000 </r>
       <r>     6.3199     0.0000    32.0000 </r>
       <r>     6.3816     0.4657    32.0287 </r>
       <r>     6.4432     0.3387    32.0496 </r>
       <r>     6.5048     0.1341    32.0579 </r>
       <r>     6.5665     0.9191    32.1145 </r>
       <r>     6.6281     1.0916    32.1818 </r>
       <r>     6.6898     1.2186    32.2569 </r>
       <r>     6.7514     2.0137    32.3811 </r>
       <r>     6.8131     2.6809    32.5463 </r>
       <r>     6.8747     0.3863    32.5703 </r>
       <r>     6.9364     0.6645    32.6113 </r>
       <r>     6.9980     1.0520    32.6761 </r>
       <r>     7.0597     3.8187    32.9115 </r>
       <r>     7.1213     1.3535    32.9950 </r>
       <r>     7.1829     2.9634    33.1778 </r>
       <r>     7.2446     2.7666    33.3484 </r>
       <r>     7.3062     2.1359    33.4800 </r>
       <r>     7.3679     4.0272    33.7283 </r>
       <r>     7.4295     3.5690    33.9484 </r>
       <r>     7.4912     2.5253    34.1041 </r>
       <r>     7.5528     4.9908    34.4117 </r>
       <r>     7.6145     0.8415    34.4636 </r>
       <r>     7.6761     5.6020    34.8089 </r>
       <r>     7.7377     5.7911    35.1660 </r>
       <r>     7.7994     5.6410    35.5142 </r>
       <r>     7.8610     5.7487    35.8686 </r>
       <r>     7.9227     4.3570    36.1372 </r>
       <r>     7.9843     3.2091    36.3350 </r>
       <r>     8.0460     8.7552    36.8747 </r>
       <r>     8.1076     4.4765    37.1510 </r>
       <r>     8.1693     9.6919    37.7485 </r>
       <r>     8.2309     3.1277    37.9413 </r>
       <r>     8.2926     5.4690    38.2784 </r>
       <r>     8.3542     7.4553    38.7380 </r>
       <r>     8.4158     3.7317    38.9681 </r>
       <r>     8.4775     4.9504    39.2734 </r>
       <r>     8.5391     4.2706    39.5366 </r>
       <r>     8.6008     5.2706    39.8615 </r>
       <r>     8.6624     5.9700    40.2296 </r>
       <r>     8.7241     3.5494    40.4484 </r>
       <r>     8.7857     3.5827    40.6693 </r>
       <r>     8.8474     3.6747    40.8958 </r>
       <r>     8.9090     4.5240    41.1748 </r>
       <r>     8.9706     5.5397    41.5164 </r>
       <r>     9.0323    10.4322    42.1597 </r>
       <r>     9.0939    11.5808    42.8737 </r>
       <r>     9.1556     8.3558    43.3888 </r>
       <r>     9.2172     3.1669    43.5840 </r>
       <r>     9.2789     5.7927    43.9411 </r>
       <r>     9.3405     8.1820    44.4458 </r>
       <r>     9.4022     7.2146    44.8907 </r>
       <r>     9.4638     6.2985    45.2790 </r>
       <r>     9.5255     3.0222    45.4654 </r>
       <r>     9.5871     7.7185    45.9412 </r>
       <r>     9.6487     2.2884    46.0823 </r>
       <r>     9.7104     2.6446    46.2455 </r>
       <r>     9.7720     4.2129    46.5052 </r>
       <r>     9.8337     1.1753    46.5777 </r>
       <r>     9.8953     1.9566    46.6983 </r>
       <r>     9.9570     6.0564    47.0716 </r>
       <r>    10.0186     1.6452    47.1731 </r>
       <r>    10.0803     1.4225    47.2608 </r>
       <r>    10.1419     2.3368    47.4048 </r>
       <r>    10.2035     0.5362    47.4380 </r>
       <r>    10.2652     0.3380    47.4589 </r>
       <r>    10.3268     2.3341    47.6027 </r>
       <r>    10.3885     0.5434    47.6362 </r>
       <r>    10.4501     0.2265    47.6503 </r>
       <r>    10.5118     2.2120    47.7867 </r>
       <r>    10.5734     1.2831    47.8658 </r>
       <r>    10.6351     1.1039    47.9338 </r>
       <r>    10.6967     1.0717    48.0000 </r>
       <r>    10.7584     0.0000    48.0000 </r>
       <r>    10.8200     0.0000    48.0000 </r>
       <r>    10.8816     0.0000    48.0000 </r>
       <r>    10.9433     0.0000    48.0000 </r>
       <r>    11.0049     0.0000    48.0000 </r>
       <r>    11.0666     0.0000    48.0000 </r>
       <r>    11.1282     0.0000    48.0000 </r>
       <r>    11.1899     0.0000    48.0000 </r>
       <r>    11.2515     0.0000    48.0000 </r>
       <r>    11.3132     0.0000    48.0000 </r>
       <r>    11.3748     0.0000    48.0000 </r>
       <r>    11.4365     0.0000    48.0000 </r>
       <r>    11.4981     0.0000    48.0000 </r>
      </set>
     </set>
    </array>
   </total>
  </dos>
 </calculation>
 <structure name="finalpos" >
  <crystal>
   <varray name="basis" >
    <v>       0.00000000       0.00000000     -10.88740475 </v>
    <v>      -2.72185119       2.72185119      -0.00000000 </v>
    <v>       2.72185119       2.72185119       0.00000000 </v>
   </varray>
   <i name="volume">    161.31810740 </i>
   <varray name="rec_basis" >
    <v>       0.00000000      -0.00000000      -0.09184925 </v>
    <v>      -0.18369851       0.18369851       0.00000000 </v>
    <v>       0.18369851       0.18369851       0.00000000 </v>
   </varray>
  </crystal>
  <varray name="positions" >
   <v>       0.00000000       0.00000000       0.00000000 </v>
   <v>       0.75000000       0.50000000       0.50000000 </v>
   <v>       0.50000000       0.00000000       0.00000000 </v>
   <v>       0.25000000       0.50000000       0.50000000 </v>
   <v>       0.87500000       0.00000000       0.50000000 </v>
   <v>       0.62500000       0.50000000       0.00000000 </v>
   <v>       0.37500000       0.00000000       0.50000000 </v>
   <v>       0.12500000       0.50000000       0.00000000 </v>
  </varray>
 </structure>
</modeling>
