<?xml version="1.0" encoding="ISO-8859-1"?>
<modeling>
 <generator>
  <i name="program" type="string">vasp </i>
  <i name="version" type="string">6.4.3  </i>
  <i name="subversion" type="string">19Mar24 (build Jun 20 2024 15:56:09) complex                          parallel </i>
  <i name="platform" type="string">LinuxNV_CrayMPICH </i>
  <i name="date" type="string">2025 01 13 </i>
  <i name="time" type="string">18:18:58 </i>
 </generator>
 <incar>
  <i type="string" name="PREC">Accurate</i>
  <i type="int" name="IBRION">    -1</i>
  <i name="EDIFF">      0.00000001</i>
  <i type="int" name="NSW">     0</i>
  <i name="ENCUT">    500.00000000</i>
  <i type="logical" name="LREAL"> F  </i>
  <i type="int" name="ISMEAR">     0</i>
  <i name="SIGMA">      0.01000000</i>
  <i type="logical" name="LWAVE"> F  </i>
  <i type="logical" name="LCHARG"> F  </i>
 </incar>
 <primitive_cell>
  <structure name="primitive_cell" >
   <crystal>
    <varray name="basis" >
     <v>       2.72185119       0.00000000       2.72185119 </v>
     <v>       2.72185119       2.72185119       0.00000000 </v>
     <v>       0.00000000       2.72185119       2.72185119 </v>
    </varray>
    <i name="volume">     40.32952685 </i>
    <varray name="rec_basis" >
     <v>       0.18369851      -0.18369851       0.18369851 </v>
     <v>       0.18369851       0.18369851      -0.18369851 </v>
     <v>      -0.18369851       0.18369851       0.18369851 </v>
    </varray>
   </crystal>
   <varray name="positions" >
    <v>       0.00000000       0.00000000       0.00000000 </v>
    <v>       0.25000000       0.25000000       0.25000000 </v>
   </varray>
  </structure>
  <varray name="primitive_index" >
   <v type="int" >        1 </v>
   <v type="int" >        6 </v>
  </varray>
 </primitive_cell>
 <kpoints>
  <generation param="Gamma">
   <v type="int" name="divisions">       8        5       11 </v>
   <v name="usershift">      0.00000000       0.00000000       0.00000000 </v>
   <v name="genvec1">      0.12500000      -0.00000000      -0.00000000 </v>
   <v name="genvec2">     -0.00000000       0.20000000      -0.00000000 </v>
   <v name="genvec3">      0.00000000      -0.00000000       0.09090909 </v>
   <v name="shift">      0.00000000       0.00000000       0.00000000 </v>
  </generation>
  <varray name="kpointlist" >
   <v>       0.00000000       0.00000000       0.00000000 </v>
   <v>       0.12500000       0.00000000       0.00000000 </v>
   <v>       0.25000000       0.00000000       0.00000000 </v>
   <v>       0.37500000       0.00000000       0.00000000 </v>
   <v>       0.50000000       0.00000000       0.00000000 </v>
   <v>       0.00000000       0.20000000       0.00000000 </v>
   <v>       0.12500000       0.20000000       0.00000000 </v>
   <v>       0.25000000       0.20000000       0.00000000 </v>
   <v>       0.37500000       0.20000000       0.00000000 </v>
   <v>       0.50000000       0.20000000       0.00000000 </v>
   <v>       0.00000000       0.40000000       0.00000000 </v>
   <v>       0.12500000       0.40000000       0.00000000 </v>
   <v>       0.25000000       0.40000000       0.00000000 </v>
   <v>       0.37500000       0.40000000       0.00000000 </v>
   <v>       0.50000000       0.40000000       0.00000000 </v>
   <v>       0.00000000       0.00000000       0.09090909 </v>
   <v>       0.12500000       0.00000000       0.09090909 </v>
   <v>       0.25000000       0.00000000       0.09090909 </v>
   <v>       0.37500000       0.00000000       0.09090909 </v>
   <v>       0.50000000       0.00000000       0.09090909 </v>
   <v>       0.00000000       0.20000000       0.09090909 </v>
   <v>       0.12500000       0.20000000       0.09090909 </v>
   <v>       0.25000000       0.20000000       0.09090909 </v>
   <v>       0.37500000       0.20000000       0.09090909 </v>
   <v>       0.50000000       0.20000000       0.09090909 </v>
   <v>       0.00000000       0.40000000       0.09090909 </v>
   <v>       0.12500000       0.40000000       0.09090909 </v>
   <v>       0.25000000       0.40000000       0.09090909 </v>
   <v>       0.37500000       0.40000000       0.09090909 </v>
   <v>       0.50000000       0.40000000       0.09090909 </v>
   <v>       0.00000000       0.00000000       0.18181818 </v>
   <v>       0.12500000       0.00000000       0.18181818 </v>
   <v>       0.25000000       0.00000000       0.18181818 </v>
   <v>       0.37500000       0.00000000       0.18181818 </v>
   <v>       0.50000000       0.00000000       0.18181818 </v>
   <v>       0.00000000       0.20000000       0.18181818 </v>
   <v>       0.12500000       0.20000000       0.18181818 </v>
   <v>       0.25000000       0.20000000       0.18181818 </v>
   <v>       0.37500000       0.20000000       0.18181818 </v>
   <v>       0.50000000       0.20000000       0.18181818 </v>
   <v>       0.00000000       0.40000000       0.18181818 </v>
   <v>       0.12500000       0.40000000       0.18181818 </v>
   <v>       0.25000000       0.40000000       0.18181818 </v>
   <v>       0.37500000       0.40000000       0.18181818 </v>
   <v>       0.50000000       0.40000000       0.18181818 </v>
   <v>       0.00000000       0.00000000       0.27272727 </v>
   <v>       0.12500000       0.00000000       0.27272727 </v>
   <v>       0.25000000       0.00000000       0.27272727 </v>
   <v>       0.37500000       0.00000000       0.27272727 </v>
   <v>       0.50000000       0.00000000       0.27272727 </v>
   <v>       0.00000000       0.20000000       0.27272727 </v>
   <v>       0.12500000       0.20000000       0.27272727 </v>
   <v>       0.25000000       0.20000000       0.27272727 </v>
   <v>       0.37500000       0.20000000       0.27272727 </v>
   <v>       0.50000000       0.20000000       0.27272727 </v>
   <v>       0.00000000       0.40000000       0.27272727 </v>
   <v>       0.12500000       0.40000000       0.27272727 </v>
   <v>       0.25000000       0.40000000       0.27272727 </v>
   <v>       0.37500000       0.40000000       0.27272727 </v>
   <v>       0.50000000       0.40000000       0.27272727 </v>
   <v>       0.00000000       0.00000000       0.36363636 </v>
   <v>       0.12500000       0.00000000       0.36363636 </v>
   <v>       0.25000000       0.00000000       0.36363636 </v>
   <v>       0.37500000       0.00000000       0.36363636 </v>
   <v>       0.50000000       0.00000000       0.36363636 </v>
   <v>       0.00000000       0.20000000       0.36363636 </v>
   <v>       0.12500000       0.20000000       0.36363636 </v>
   <v>       0.25000000       0.20000000       0.36363636 </v>
   <v>       0.37500000       0.20000000       0.36363636 </v>
   <v>       0.50000000       0.20000000       0.36363636 </v>
   <v>       0.00000000       0.40000000       0.36363636 </v>
   <v>       0.12500000       0.40000000       0.36363636 </v>
   <v>       0.25000000       0.40000000       0.36363636 </v>
   <v>       0.37500000       0.40000000       0.36363636 </v>
   <v>       0.50000000       0.40000000       0.36363636 </v>
   <v>       0.00000000       0.00000000       0.45454545 </v>
   <v>       0.12500000       0.00000000       0.45454545 </v>
   <v>       0.25000000       0.00000000       0.45454545 </v>
   <v>       0.37500000       0.00000000       0.45454545 </v>
   <v>       0.50000000       0.00000000       0.45454545 </v>
   <v>       0.00000000       0.20000000       0.45454545 </v>
   <v>       0.12500000       0.20000000       0.45454545 </v>
   <v>       0.25000000       0.20000000       0.45454545 </v>
   <v>       0.37500000       0.20000000       0.45454545 </v>
   <v>       0.50000000       0.20000000       0.45454545 </v>
   <v>       0.00000000       0.40000000       0.45454545 </v>
   <v>       0.12500000       0.40000000       0.45454545 </v>
   <v>       0.25000000       0.40000000       0.45454545 </v>
   <v>       0.37500000       0.40000000       0.45454545 </v>
   <v>       0.50000000       0.40000000       0.45454545 </v>
  </varray>
  <varray name="weights" >
   <v>       0.00227273 </v>
   <v>       0.00454545 </v>
   <v>       0.00454545 </v>
   <v>       0.00454545 </v>
   <v>       0.00227273 </v>
   <v>       0.00454545 </v>
   <v>       0.00909091 </v>
   <v>       0.00909091 </v>
   <v>       0.00909091 </v>
   <v>       0.00454545 </v>
   <v>       0.00454545 </v>
   <v>       0.00909091 </v>
   <v>       0.00909091 </v>
   <v>       0.00909091 </v>
   <v>       0.00454545 </v>
   <v>       0.00454545 </v>
   <v>       0.00909091 </v>
   <v>       0.00909091 </v>
   <v>       0.00909091 </v>
   <v>       0.00454545 </v>
   <v>       0.00909091 </v>
   <v>       0.01818182 </v>
   <v>       0.01818182 </v>
   <v>       0.01818182 </v>
   <v>       0.00909091 </v>
   <v>       0.00909091 </v>
   <v>       0.01818182 </v>
   <v>       0.01818182 </v>
   <v>       0.01818182 </v>
   <v>       0.00909091 </v>
   <v>       0.00454545 </v>
   <v>       0.00909091 </v>
   <v>       0.00909091 </v>
   <v>       0.00909091 </v>
   <v>       0.00454545 </v>
   <v>       0.00909091 </v>
   <v>       0.01818182 </v>
   <v>       0.01818182 </v>
   <v>       0.01818182 </v>
   <v>       0.00909091 </v>
   <v>       0.00909091 </v>
   <v>       0.01818182 </v>
   <v>       0.01818182 </v>
   <v>       0.01818182 </v>
   <v>       0.00909091 </v>
   <v>       0.00454545 </v>
   <v>       0.00909091 </v>
   <v>       0.00909091 </v>
   <v>       0.00909091 </v>
   <v>       0.00454545 </v>
   <v>       0.00909091 </v>
   <v>       0.01818182 </v>
   <v>       0.01818182 </v>
   <v>       0.01818182 </v>
   <v>       0.00909091 </v>
   <v>       0.00909091 </v>
   <v>       0.01818182 </v>
   <v>       0.01818182 </v>
   <v>       0.01818182 </v>
   <v>       0.00909091 </v>
   <v>       0.00454545 </v>
   <v>       0.00909091 </v>
   <v>       0.00909091 </v>
   <v>       0.00909091 </v>
   <v>       0.00454545 </v>
   <v>       0.00909091 </v>
   <v>       0.01818182 </v>
   <v>       0.01818182 </v>
   <v>       0.01818182 </v>
   <v>       0.00909091 </v>
   <v>       0.00909091 </v>
   <v>       0.01818182 </v>
   <v>       0.01818182 </v>
   <v>       0.01818182 </v>
   <v>       0.00909091 </v>
   <v>       0.00454545 </v>
   <v>       0.00909091 </v>
   <v>       0.00909091 </v>
   <v>       0.00909091 </v>
   <v>       0.00454545 </v>
   <v>       0.00909091 </v>
   <v>       0.01818182 </v>
   <v>       0.01818182 </v>
   <v>       0.01818182 </v>
   <v>       0.00909091 </v>
   <v>       0.00909091 </v>
   <v>       0.01818182 </v>
   <v>       0.01818182 </v>
   <v>       0.01818182 </v>
   <v>       0.00909091 </v>
  </varray>
 </kpoints>
 <parameters>
  <separator name="general" >
   <i type="string" name="SYSTEM">unknown system</i>
   <i type="logical" name="LCOMPAT"> F  </i>
  </separator>
  <separator name="electronic" >
   <i type="string" name="PREC">accura</i>
   <i name="ENMAX">    500.00000000</i>
   <i name="ENAUG">    322.06900000</i>
   <i name="EDIFF">      0.00000001</i>
   <i type="int" name="IALGO">    38</i>
   <i type="int" name="IWAVPR">    10</i>
   <i type="int" name="NBANDS">    24</i>
   <i type="int" name="NBANDSLOW">    -1</i>
   <i type="int" name="NBANDSHIGH">    -1</i>
   <i name="NELECT">     32.00000000</i>
   <i type="int" name="TURBO">     0</i>
   <i type="int" name="IRESTART">     0</i>
   <i type="int" name="NREBOOT">     0</i>
   <i type="int" name="NMIN">     0</i>
   <i name="EREF">      0.00000000</i>
   <separator name="electronic smearing" >
    <i type="int" name="ISMEAR">     0</i>
    <i name="SIGMA">      0.01000000</i>
    <i name="KSPACING">      0.50000000</i>
    <i type="logical" name="KGAMMA"> T  </i>
    <i type="logical" name="KBLOWUP"> T  </i>
   </separator>
   <separator name="electronic projectors" >
    <i type="logical" name="LREAL"> F  </i>
    <v name="ROPT">      0.00000000</v>
    <i type="int" name="LMAXPAW">  -100</i>
    <i type="int" name="LMAXMIX">     2</i>
    <i type="logical" name="NLSPLINE"> F  </i>
   </separator>
   <separator name="electronic startup" >
    <i type="int" name="ISTART">     0</i>
    <i type="int" name="ICHARG">     2</i>
    <i type="int" name="INIWAV">     1</i>
   </separator>
   <separator name="electronic spin" >
    <i type="int" name="ISPIN">     1</i>
    <i type="logical" name="LNONCOLLINEAR"> F  </i>
    <v name="MAGMOM">      1.00000000      1.00000000      1.00000000      1.00000000      1.00000000      1.00000000      1.00000000      1.00000000</v>
    <i name="NUPDOWN">     -1.00000000</i>
    <i type="logical" name="LSORBIT"> F  </i>
    <v name="SAXIS">      0.00000000      0.00000000      1.00000000</v>
    <i type="logical" name="LSPIRAL"> F  </i>
    <v name="QSPIRAL">      0.00000000      0.00000000      0.00000000</v>
    <i type="logical" name="LZEROZ"> F  </i>
   </separator>
   <separator name="electronic exchange-correlation" >
    <i type="logical" name="LASPH"> F  </i>
   </separator>
   <separator name="electronic convergence" >
    <i type="int" name="NELM">    60</i>
    <i type="int" name="NELMDL">    -5</i>
    <i type="int" name="NELMIN">     2</i>
    <i name="ENINI">    500.00000000</i>
    <separator name="electronic convergence detail" >
     <i type="logical" name="LDIAG"> T  </i>
     <i type="logical" name="LSUBROT"> F  </i>
     <i name="WEIMIN">      0.00000000</i>
     <i name="EBREAK">      0.00000000</i>
     <i name="DEPER">      0.30000000</i>
     <i type="int" name="NRMM">     4</i>
     <i name="TIME">      0.40000000</i>
    </separator>
   </separator>
   <separator name="electronic mixer" >
    <i name="AMIX">      0.40000000</i>
    <i name="BMIX">      1.00000000</i>
    <i name="AMIN">      0.10000000</i>
    <i name="AMIX_MAG">      1.60000000</i>
    <i name="BMIX_MAG">      1.00000000</i>
    <separator name="electronic mixer details" >
     <i type="int" name="IMIX">     4</i>
     <i type="logical" name="MIXFIRST"> F  </i>
     <i type="int" name="MAXMIX">   -45</i>
     <i name="WC">    100.00000000</i>
     <i type="int" name="INIMIX">     1</i>
     <i type="int" name="MIXPRE">     1</i>
     <i type="int" name="MREMOVE">     5</i>
    </separator>
   </separator>
   <separator name="electronic dipolcorrection" >
    <i type="logical" name="LDIPOL"> F  </i>
    <i type="logical" name="LMONO"> F  </i>
    <i type="int" name="IDIPOL">     0</i>
    <i name="EPSILON">      1.00000000</i>
    <v name="DIPOL">   -100.00000000   -100.00000000   -100.00000000</v>
    <i name="EFIELD">      0.00000000</i>
    <i type="logical" name="LVACPOTAV"> F  </i>
   </separator>
  </separator>
  <separator name="grids" >
   <i type="int" name="NGX">    40</i>
   <i type="int" name="NGY">    56</i>
   <i type="int" name="NGZ">    28</i>
   <i type="int" name="NGXF">    80</i>
   <i type="int" name="NGYF">   112</i>
   <i type="int" name="NGZF">    56</i>
   <i type="logical" name="ADDGRID"> F  </i>
  </separator>
  <separator name="ionic" >
   <i type="int" name="NSW">     0</i>
   <i type="int" name="IBRION">    -1</i>
   <i type="int" name="MDALGO">     0</i>
   <i type="int" name="ISIF">     2</i>
   <i name="PSTRESS">      0.00000000</i>
   <i name="EDIFFG">      0.00000010</i>
   <i type="int" name="NFREE">     0</i>
   <i name="POTIM">      0.50000000</i>
   <i name="SMASS">     -3.00000000</i>
   <i name="SCALEE">      1.00000000</i>
  </separator>
  <separator name="ionic md" >
   <i name="TEBEG">      0.00010000</i>
   <i name="TEEND">      0.00010000</i>
   <i type="int" name="NBLOCK">     1</i>
   <i type="int" name="KBLOCK">     1</i>
   <i type="int" name="NPACO">   256</i>
   <i name="APACO">     10.00000000</i>
  </separator>
  <separator name="symmetry" >
   <i type="int" name="ISYM">     2</i>
   <i name="SYMPREC">      0.00001000</i>
  </separator>
  <separator name="dos" >
   <i type="int" name="LORBIT">     0</i>
   <v name="RWIGS">     -1.00000000</v>
   <i type="int" name="NEDOS">   301</i>
   <i name="EMIN">     10.00000000</i>
   <i name="EMAX">    -10.00000000</i>
   <i name="EFERMI">      0.00000000</i>
  </separator>
  <separator name="writing" >
   <i type="int" name="NWRITE">     2</i>
   <i type="logical" name="LWAVE"> F  </i>
   <i type="logical" name="LDOWNSAMPLE"> F  </i>
   <i type="logical" name="LCHARG"> F  </i>
   <i type="logical" name="LPARD"> F  </i>
   <i type="logical" name="LVTOT"> F  </i>
   <i type="logical" name="LVHAR"> F  </i>
   <i type="logical" name="LELF"> F  </i>
   <i type="logical" name="LOPTICS"> F  </i>
   <v name="STM">      0.00000000      0.00000000      0.00000000      0.00000000      0.00000000      0.00000000      0.00000000</v>
  </separator>
  <separator name="performance" >
   <i type="int" name="NPAR">     8</i>
   <i type="int" name="NSIM">     4</i>
   <i type="int" name="NBLK">    -1</i>
   <i type="logical" name="LPLANE"> T  </i>
   <i type="logical" name="LSCALAPACK"> T  </i>
   <i type="logical" name="LSCAAWARE"> F  </i>
   <i type="logical" name="LSCALU"> F  </i>
   <i type="logical" name="LASYNC"> F  </i>
   <i type="logical" name="LORBITALREAL"> F  </i>
  </separator>
  <separator name="miscellaneous" >
   <i type="int" name="IDIOT">     3</i>
   <i type="int" name="PHON_NSTRUCT">    -1</i>
   <i type="logical" name="LMUSIC"> F  </i>
   <v name="POMASS">     28.08500000</v>
   <v name="DARWINR">      0.00000000</v>
   <v name="DARWINV">      1.00000000</v>
   <i type="logical" name="LCORR"> T  </i>
  </separator>
  <i type="logical" name="GGA_COMPAT"> T  </i>
  <i type="logical" name="LBERRY"> F  </i>
  <i type="int" name="ICORELEVEL">     0</i>
  <i type="logical" name="LDAU"> F  </i>
  <i type="int" name="I_CONSTRAINED_M">     0</i>
  <separator name="electronic exchange-correlation" >
   <i type="string" name="GGA    ">PE</i>
   <i type="string" name="XC_C">1</i>
   <i type="int" name="VOSKOWN">     0</i>
   <i type="logical" name="LHFCALC"> F  </i>
   <i type="string" name="PRECFOCK"></i>
   <i type="logical" name="LSYMGRAD"> F  </i>
   <i type="logical" name="LHFONE"> F  </i>
   <i type="logical" name="LRHFCALC"> F  </i>
   <i type="logical" name="LTHOMAS"> F  </i>
   <i type="logical" name="LMODELHF"> F  </i>
   <i type="logical" name="LFOCKACE"> F  </i>
   <i name="ENCUT4O">     -1.00000000</i>
   <i type="int" name="EXXOEP">     0</i>
   <i type="int" name="FOURORBIT">     0</i>
   <i name="AEXX">      0.00000000</i>
   <i name="HFALPHA">      0.00000000</i>
   <i name="MCALPHA">      0.00000000</i>
   <i name="ALDAX">      1.00000000</i>
   <i name="AGGAX">      1.00000000</i>
   <i name="AMGGAX">      1.00000000</i>
   <i name="ALDAC">      1.00000000</i>
   <i name="AGGAC">      1.00000000</i>
   <i name="AMGGAC">      1.00000000</i>
   <i type="int" name="NKREDX">     1</i>
   <i type="int" name="NKREDY">     1</i>
   <i type="int" name="NKREDZ">     1</i>
   <i type="logical" name="SHIFTRED"> F  </i>
   <i type="logical" name="ODDONLY"> F  </i>
   <i type="logical" name="EVENONLY"> F  </i>
   <i type="int" name="LMAXFOCK">     0</i>
   <i type="int" name="NMAXFOCKAE">     0</i>
   <i type="logical" name="LFOCKAEDFT"> F  </i>
   <i name="HFSCREEN">      0.00000000</i>
   <i name="HFSCREENC">      0.00000000</i>
   <i type="int" name="NBANDSGWLOW">     0</i>
  </separator>
  <separator name="vdW DFT" >
   <i type="logical" name="LUSE_VDW"> F  </i>
   <i type="int" name="IVDW_NL">    -1</i>
   <i type="logical" name="LSPIN_VDW"> F  </i>
   <i name="ZAB_VDW">     -0.84910000</i>
   <i name="GAMMA_VDW">      1.39626340</i>
   <i name="ALPHA_VDW">      0.00000000</i>
   <i name="PARAM1">      0.12340000</i>
   <i name="PARAM2">      1.00000000</i>
   <i name="BPARAM">      6.30000000</i>
   <i name="CPARAM">      0.00930000</i>
  </separator>
  <separator name="model GW" >
   <i type="int" name="MODEL_GW">     0</i>
   <i name="MODEL_EPS0">     12.09885805</i>
   <i name="MODEL_ALPHA">      1.00000000</i>
  </separator>
  <separator name="linear response parameters" >
   <i type="logical" name="LEPSILON"> F  </i>
   <i type="logical" name="LRPA"> F  </i>
   <i type="logical" name="LNABLA"> F  </i>
   <i type="logical" name="LVEL"> F  </i>
   <i name="CSHIFT">      0.10000000</i>
   <i name="OMEGAMAX">     -1.00000000</i>
   <i name="DEG_THRESHOLD">      0.00200000</i>
   <i name="RTIME">     -0.10000000</i>
   <i name="WPLASMAI">      0.00000000</i>
   <v name="DFIELD">      0.00000000      0.00000000      0.00000000</v>
   <v name="WPLASMA">      0.00000000      0.00000000      0.00000000      0.00000000      0.00000000      0.00000000      0.00000000      0.00000000      0.00000000</v>
  </separator>
  <separator name="orbital magnetization" >
   <i type="logical" name="NUCIND"> F  </i>
   <v name="MAGPOS">      0.00000000      0.00000000      0.00000000</v>
   <i type="logical" name="LNICSALL"> T  </i>
   <i type="logical" name="ORBITALMAG"> F  </i>
   <i type="logical" name="LMAGBLOCH"> F  </i>
   <i type="logical" name="LCHIMAG"> F  </i>
   <i type="logical" name="LGAUGE"> T  </i>
   <i type="int" name="MAGATOM">     0</i>
   <v name="MAGDIPOL">      0.00000000      0.00000000      0.00000000</v>
   <v name="AVECCONST">      0.00000000      0.00000000      0.00000000</v>
  </separator>
  <separator name="response functions" >
   <i type="logical" name="LALL_IN_ONE"> F  </i>
   <i type="int" name="IALL_IN_ONE">    -1</i>
   <i type="int" name="NBANDS_WAVE">    -1</i>
   <i type="logical" name="LFINITE_TEMPERATURE"> F  </i>
   <i type="logical" name="LADDER"> F  </i>
   <i type="logical" name="LRPAFORCE"> F  </i>
   <i type="logical" name="LFXC"> F  </i>
   <i type="logical" name="LHARTREE"> T  </i>
   <i type="int" name="IBSE">     0</i>
   <v type="int" name="KPOINT">    -1     0     0     0</v>
   <i type="logical" name="LTCTC"> F  </i>
   <i type="logical" name="LTCTE"> F  </i>
   <i type="logical" name="LTETE"> F  </i>
   <i type="logical" name="LTRIPLET"> F  </i>
   <i type="logical" name="LFXCEPS"> F  </i>
   <i type="logical" name="LFXHEG"> F  </i>
   <i type="int" name="NATURALO">     2</i>
   <i type="logical" name="LHOLEGF"> F  </i>
   <i type="logical" name="L2ORDER"> F  </i>
   <i type="logical" name="LDMP1"> F  </i>
   <i type="logical" name="LMP2LT"> F  </i>
   <i type="logical" name="LSMP2LT"> F  </i>
   <i type="logical" name="LGWLF"> F  </i>
   <i name="ENCUTGW">     -1.60000002</i>
   <i name="ENCUTGWSOFT">     -1.60000002</i>
   <i name="ENCUTLF">     -1.00000000</i>
   <i type="logical" name="ESF_SPLINES"> F  </i>
   <i name="ESF_CONV">      0.01000000</i>
   <i type="int" name="ESF_NINTER">    15</i>
   <i type="int" name="LMAXMP2">    -1</i>
   <i name="SCISSOR">      0.00000000</i>
   <i type="int" name="NOMEGA">     0</i>
   <i type="int" name="NOMEGAR">     0</i>
   <i type="int" name="NBANDSGW">    -1</i>
   <i type="int" name="NBANDSO">    -1</i>
   <i type="int" name="NBANDSV">    -1</i>
   <i type="int" name="NELMGW">     1</i>
   <i type="int" name="NELMHF">     1</i>
   <i type="int" name="DIM">     3</i>
   <i type="int" name="IESPILON">     4</i>
   <i type="int" name="ANTIRES">     0</i>
   <i name="OMEGAMAX">    -30.00000000</i>
   <i name="OMEGAMIN">    -30.00000000</i>
   <i name="OMEGATL">   -200.00000000</i>
   <i type="int" name="OMEGAGRID">     0</i>
   <i name="CSHIFT">     -0.10000000</i>
   <i type="logical" name="LSELFENERGY"> F  </i>
   <i type="logical" name="LSPECTRAL"> F  </i>
   <i type="logical" name="LSPECTRALGW"> F  </i>
   <i type="logical" name="LSINGLES"> F  </i>
   <i type="logical" name="LFERMIGW"> F  </i>
   <i type="logical" name="ODDONLYGW"> F  </i>
   <i type="logical" name="EVENONLYGW"> F  </i>
   <i type="int" name="NKREDLFX">     1</i>
   <i type="int" name="NKREDLFY">     1</i>
   <i type="int" name="NKREDLFZ">     1</i>
   <i type="int" name="MAXMEM">  2800</i>
   <i type="int" name="TELESCOPE">     0</i>
   <i type="int" name="NTAUPAR">    -1</i>
   <i type="int" name="NOMEGAPAR">    -1</i>
   <i name="DAMP_NEWTON">      0.80000001</i>
   <i name="LAMBDA">      1.00000000</i>
  </separator>
  <separator name="External order field" >
   <i name="OFIELD_KAPPA">      0.00000000</i>
   <v name="OFIELD_K">      0.00000000      0.00000000      0.00000000</v>
   <i name="OFIELD_Q6_NEAR">      0.00000000</i>
   <i name="OFIELD_Q6_FAR">      0.00000000</i>
   <i name="OFIELD_A">      0.00000000</i>
  </separator>
  <separator name="optional k-points parameters" >
   <i type="int" name="KPOINTS_OPT_MODE">     1</i>
   <i type="logical" name="LKPOINTS_OPT"> F  </i>
  </separator>
 </parameters>
 <atominfo>
  <atoms>       8 </atoms>
  <types>       1 </types>
  <array name="atoms" >
   <dimension dim="1">ion</dimension>
   <field type="string">element</field>
   <field type="int">atomtype</field>
   <set>
    <rc><c>Si</c><c>   1</c></rc>
    <rc><c>Si</c><c>   1</c></rc>
    <rc><c>Si</c><c>   1</c></rc>
    <rc><c>Si</c><c>   1</c></rc>
    <rc><c>Si</c><c>   1</c></rc>
    <rc><c>Si</c><c>   1</c></rc>
    <rc><c>Si</c><c>   1</c></rc>
    <rc><c>Si</c><c>   1</c></rc>
   </set>
  </array>
  <array name="atomtypes" >
   <dimension dim="1">type</dimension>
   <field type="int">atomspertype</field>
   <field type="string">element</field>
   <field>mass</field>
   <field>valence</field>
   <field type="string">pseudopotential</field>
   <set>
    <rc><c>   8</c><c>Si</c><c>     28.08500000</c><c>      4.00000000</c><c>  PAW_PBE Si 05Jan2001                  </c></rc>
   </set>
  </array>
 </atominfo>
 <structure name="initialpos" >
  <crystal>
   <varray name="basis" >
    <v>      -0.00000000      -0.00000000       5.44370237 </v>
    <v>       5.44370237      -5.44370237       0.00000000 </v>
    <v>       2.72185119       2.72185119       0.00000000 </v>
   </varray>
   <i name="volume">    161.31810740 </i>
   <varray name="rec_basis" >
    <v>      -0.00000000       0.00000000       0.18369851 </v>
    <v>       0.09184925      -0.09184925      -0.00000000 </v>
    <v>       0.18369851       0.18369851       0.00000000 </v>
   </varray>
  </crystal>
  <varray name="positions" >
   <v>       0.00000000       0.00000000       0.00000000 </v>
   <v>       0.50000000       0.75000000       0.50000000 </v>
   <v>       0.00000000       0.50000000       0.00000000 </v>
   <v>       0.50000000       0.25000000       0.50000000 </v>
   <v>       0.25000000       0.00000000       0.50000000 </v>
   <v>       0.75000000       0.75000000       0.00000000 </v>
   <v>       0.25000000       0.50000000       0.50000000 </v>
   <v>       0.75000000       0.25000000       0.00000000 </v>
  </varray>
 </structure>
 <calculation>
  <scstep>
   <time name="dav">    0.46    0.46</time>
   <time name="total">    0.48    0.48</time>
   <energy>
    <i name="alphaZ">     13.35522965 </i>
    <i name="ewald">   -911.95285847 </i>
    <i name="hartreedc">    -44.45938125 </i>
    <i name="XCdc">    -74.52615019 </i>
    <i name="pawpsdc">    704.99039692 </i>
    <i name="pawaedc">   -564.24414232 </i>
    <i name="eentropy">     -0.00004886 </i>
    <i name="bandstr">    119.47525606 </i>
    <i name="atom">    824.53005375 </i>
    <i name="e_fr_energy">     67.16835528 </i>
    <i name="e_wo_entrp">     67.16840414 </i>
    <i name="e_0_energy">     67.16837971 </i>
   </energy>
  </scstep>
  <scstep>
   <time name="dav">    0.54    0.54</time>
   <time name="total">    0.54    0.54</time>
   <energy>
    <i name="e_fr_energy">    -38.87010918 </i>
    <i name="e_wo_entrp">    -38.87008354 </i>
    <i name="e_0_energy">    -38.87009636 </i>
   </energy>
  </scstep>
  <scstep>
   <time name="dav">    0.54    0.55</time>
   <time name="total">    0.54    0.55</time>
   <energy>
    <i name="e_fr_energy">    -43.99957855 </i>
    <i name="e_wo_entrp">    -43.99957855 </i>
    <i name="e_0_energy">    -43.99957855 </i>
   </energy>
  </scstep>
  <scstep>
   <time name="dav">    0.51    0.52</time>
   <time name="total">    0.51    0.52</time>
   <energy>
    <i name="e_fr_energy">    -44.09127609 </i>
    <i name="e_wo_entrp">    -44.09127609 </i>
    <i name="e_0_energy">    -44.09127609 </i>
   </energy>
  </scstep>
  <scstep>
   <time name="dav">    0.54    0.55</time>
   <time name="total">    0.57    0.57</time>
   <energy>
    <i name="e_fr_energy">    -44.09373921 </i>
    <i name="e_wo_entrp">    -44.09373921 </i>
    <i name="e_0_energy">    -44.09373921 </i>
   </energy>
  </scstep>
  <scstep>
   <time name="dav">    0.49    0.49</time>
   <time name="total">    0.53    0.54</time>
   <energy>
    <i name="e_fr_energy">    -43.60712245 </i>
    <i name="e_wo_entrp">    -43.60712245 </i>
    <i name="e_0_energy">    -43.60712245 </i>
   </energy>
  </scstep>
  <scstep>
   <time name="dav">    0.49    0.49</time>
   <time name="total">    0.54    0.54</time>
   <energy>
    <i name="e_fr_energy">    -43.38546387 </i>
    <i name="e_wo_entrp">    -43.38546387 </i>
    <i name="e_0_energy">    -43.38546387 </i>
   </energy>
  </scstep>
  <scstep>
   <time name="dav">    0.50    0.51</time>
   <time name="total">    0.55    0.55</time>
   <energy>
    <i name="e_fr_energy">    -43.38917925 </i>
    <i name="e_wo_entrp">    -43.38917925 </i>
    <i name="e_0_energy">    -43.38917925 </i>
   </energy>
  </scstep>
  <scstep>
   <time name="dav">    0.53    0.53</time>
   <time name="total">    0.58    0.58</time>
   <energy>
    <i name="e_fr_energy">    -43.39003797 </i>
    <i name="e_wo_entrp">    -43.39003797 </i>
    <i name="e_0_energy">    -43.39003797 </i>
   </energy>
  </scstep>
  <scstep>
   <time name="dav">    0.50    0.50</time>
   <time name="total">    0.54    0.54</time>
   <energy>
    <i name="e_fr_energy">    -43.39026931 </i>
    <i name="e_wo_entrp">    -43.39026931 </i>
    <i name="e_0_energy">    -43.39026931 </i>
   </energy>
  </scstep>
  <scstep>
   <time name="dav">    0.53    0.53</time>
   <time name="total">    0.57    0.57</time>
   <energy>
    <i name="e_fr_energy">    -43.39026996 </i>
    <i name="e_wo_entrp">    -43.39026996 </i>
    <i name="e_0_energy">    -43.39026996 </i>
   </energy>
  </scstep>
  <scstep>
   <time name="dav">    0.51    0.51</time>
   <time name="total">    0.55    0.56</time>
   <energy>
    <i name="e_fr_energy">    -43.39027115 </i>
    <i name="e_wo_entrp">    -43.39027115 </i>
    <i name="e_0_energy">    -43.39027115 </i>
   </energy>
  </scstep>
  <scstep>
   <time name="dav">    0.52    0.52</time>
   <time name="total">    0.56    0.56</time>
   <energy>
    <i name="e_fr_energy">    -43.39027049 </i>
    <i name="e_wo_entrp">    -43.39027049 </i>
    <i name="e_0_energy">    -43.39027049 </i>
   </energy>
  </scstep>
  <scstep>
   <time name="dav">    0.43    0.43</time>
   <time name="total">    0.47    0.48</time>
   <energy>
    <i name="e_fr_energy">    -43.39027055 </i>
    <i name="e_wo_entrp">    -43.39027055 </i>
    <i name="e_0_energy">    -43.39027055 </i>
   </energy>
  </scstep>
  <scstep>
   <time name="dav">    0.41    0.41</time>
   <time name="total">    0.45    0.45</time>
   <energy>
    <i name="e_fr_energy">    -43.39027058 </i>
    <i name="e_wo_entrp">    -43.39027058 </i>
    <i name="e_0_energy">    -43.39027058 </i>
   </energy>
  </scstep>
  <scstep>
   <time name="dav">    0.39    0.39</time>
   <time name="total">    0.43    0.44</time>
   <energy>
    <i name="e_fr_energy">    -43.39027057 </i>
    <i name="e_wo_entrp">    -43.39027057 </i>
    <i name="e_0_energy">    -43.39027057 </i>
   </energy>
  </scstep>
  <scstep>
   <time name="dav">    0.39    0.39</time>
   <time name="total">    0.40    0.41</time>
   <energy>
    <i name="alphaZ">     13.35522965 </i>
    <i name="ewald">   -911.95285847 </i>
    <i name="hartreedc">    -60.02872387 </i>
    <i name="XCdc">    -71.99013244 </i>
    <i name="pawpsdc">   3421.48097347 </i>
    <i name="pawaedc">  -3281.60422525 </i>
    <i name="eentropy">     -0.00000000 </i>
    <i name="bandstr">     22.81941259 </i>
    <i name="atom">    824.53005375 </i>
    <i name="e_fr_energy">    -43.39027057 </i>
    <i name="e_wo_entrp">    -43.39027057 </i>
    <i name="e_0_energy">    -43.39027057 </i>
   </energy>
  </scstep>
  <structure>
   <crystal>
    <varray name="basis" >
     <v>      -0.00000000      -0.00000000       5.44370237 </v>
     <v>       5.44370237      -5.44370237       0.00000000 </v>
     <v>       2.72185119       2.72185119       0.00000000 </v>
    </varray>
    <i name="volume">    161.31810740 </i>
    <varray name="rec_basis" >
     <v>      -0.00000000       0.00000000       0.18369851 </v>
     <v>       0.09184925      -0.09184925      -0.00000000 </v>
     <v>       0.18369851       0.18369851       0.00000000 </v>
    </varray>
   </crystal>
   <varray name="positions" >
    <v>       0.00000000       0.00000000       0.00000000 </v>
    <v>       0.50000000       0.75000000       0.50000000 </v>
    <v>       0.00000000       0.50000000       0.00000000 </v>
    <v>       0.50000000       0.25000000       0.50000000 </v>
    <v>       0.25000000       0.00000000       0.50000000 </v>
    <v>       0.75000000       0.75000000       0.00000000 </v>
    <v>       0.25000000       0.50000000       0.50000000 </v>
    <v>       0.75000000       0.25000000       0.00000000 </v>
   </varray>
  </structure>
  <varray name="forces" >
   <v>       0.00000000       0.00000000      -0.00014530 </v>
   <v>       0.00000000       0.00000000      -0.00014530 </v>
   <v>       0.00000000       0.00000000      -0.00014530 </v>
   <v>       0.00000000       0.00000000      -0.00014530 </v>
   <v>      -0.00000000      -0.00000000       0.00014530 </v>
   <v>      -0.00000000      -0.00000000       0.00014530 </v>
   <v>      -0.00000000      -0.00000000       0.00014530 </v>
   <v>      -0.00000000      -0.00000000       0.00014530 </v>
  </varray>
  <varray name="stress" >
   <v>      12.55175964      -0.01536958      -0.00000000 </v>
   <v>      -0.01536958      12.55175964      -0.00000000 </v>
   <v>      -0.00000000      -0.00000000      12.46560714 </v>
  </varray>
  <energy>
   <i name="e_fr_energy">    -43.39027057 </i>
   <i name="e_wo_entrp">    -43.39027057 </i>
   <i name="e_0_energy">    -43.39027057 </i>
  </energy>
  <time name="totalsc">    9.19    9.28</time>
  <eigenvalues>
   <array>
    <dimension dim="1">band</dimension>
    <dimension dim="2">kpoint</dimension>
    <dimension dim="3">spin</dimension>
    <field>eigene</field>
    <field>occ</field>
    <set>
     <set comment="spin 1">
      <set comment="kpoint 1">
       <r>   -6.1548    1.0000 </r>
       <r>   -4.1247    1.0000 </r>
       <r>   -4.1247    1.0000 </r>
       <r>   -2.0366    1.0000 </r>
       <r>   -2.0366    1.0000 </r>
       <r>    0.2897    1.0000 </r>
       <r>    0.2897    1.0000 </r>
       <r>    2.0319    1.0000 </r>
       <r>    2.0319    1.0000 </r>
       <r>    2.9234    1.0000 </r>
       <r>    2.9234    1.0000 </r>
       <r>    4.4357    1.0000 </r>
       <r>    4.4357    1.0000 </r>
       <r>    5.7533    1.0000 </r>
       <r>    5.7534    1.0000 </r>
       <r>    5.7534    1.0000 </r>
       <r>    6.4785    0.0000 </r>
       <r>    6.4785    0.0000 </r>
       <r>    8.2008    0.0000 </r>
       <r>    8.2008    0.0000 </r>
       <r>    8.3162    0.0000 </r>
       <r>    8.3162    0.0000 </r>
       <r>    8.3162    0.0000 </r>
       <r>    9.0446    0.0000 </r>
      </set>
      <set comment="kpoint 2">
       <r>   -6.0868    1.0000 </r>
       <r>   -4.0894    1.0000 </r>
       <r>   -4.0894    1.0000 </r>
       <r>   -2.9543    1.0000 </r>
       <r>   -1.0380    1.0000 </r>
       <r>   -0.0425    1.0000 </r>
       <r>   -0.0425    1.0000 </r>
       <r>    2.4652    1.0000 </r>
       <r>    2.4652    1.0000 </r>
       <r>    2.9847    1.0000 </r>
       <r>    2.9847    1.0000 </r>
       <r>    4.4532    1.0000 </r>
       <r>    4.4532    1.0000 </r>
       <r>    5.3298    1.0000 </r>
       <r>    5.4934    1.0000 </r>
       <r>    5.4934    1.0000 </r>
       <r>    6.3453    0.0000 </r>
       <r>    6.7954    0.0000 </r>
       <r>    8.1560    0.0000 </r>
       <r>    8.2065    0.0000 </r>
       <r>    8.2065    0.0000 </r>
       <r>    8.6597    0.0000 </r>
       <r>    8.6597    0.0000 </r>
       <r>    9.4490    0.0000 </r>
      </set>
      <set comment="kpoint 3">
       <r>   -5.8835    1.0000 </r>
       <r>   -3.9969    1.0000 </r>
       <r>   -3.9969    1.0000 </r>
       <r>   -3.7752    1.0000 </r>
       <r>   -0.5936    1.0000 </r>
       <r>   -0.5936    1.0000 </r>
       <r>    0.0220    1.0000 </r>
       <r>    3.1675    1.0000 </r>
       <r>    3.1675    1.0000 </r>
       <r>    3.3078    1.0000 </r>
       <r>    3.3078    1.0000 </r>
       <r>    4.4147    1.0000 </r>
       <r>    4.4970    1.0000 </r>
       <r>    4.4970    1.0000 </r>
       <r>    4.9544    1.0000 </r>
       <r>    4.9544    1.0000 </r>
       <r>    6.3818    0.0000 </r>
       <r>    7.3065    0.0000 </r>
       <r>    7.7681    0.0000 </r>
       <r>    8.0995    0.0000 </r>
       <r>    8.0995    0.0000 </r>
       <r>    9.3718    0.0000 </r>
       <r>    9.3719    0.0000 </r>
       <r>    9.4471    0.0000 </r>
      </set>
      <set comment="kpoint 4">
       <r>   -5.5467    1.0000 </r>
       <r>   -4.4867    1.0000 </r>
       <r>   -3.8909    1.0000 </r>
       <r>   -3.8909    1.0000 </r>
       <r>   -1.0185    1.0000 </r>
       <r>   -1.0185    1.0000 </r>
       <r>    1.1214    1.0000 </r>
       <r>    3.3483    1.0000 </r>
       <r>    3.4682    1.0000 </r>
       <r>    3.4682    1.0000 </r>
       <r>    4.1481    1.0000 </r>
       <r>    4.1481    1.0000 </r>
       <r>    4.3860    1.0000 </r>
       <r>    4.3860    1.0000 </r>
       <r>    4.5431    1.0000 </r>
       <r>    4.5431    1.0000 </r>
       <r>    6.5714    0.0000 </r>
       <r>    7.3108    0.0000 </r>
       <r>    7.6182    0.0000 </r>
       <r>    7.6182    0.0000 </r>
       <r>    8.0130    0.0000 </r>
       <r>    9.1034    0.0000 </r>
       <r>    9.1035    0.0000 </r>
       <r>    9.2345    0.0000 </r>
      </set>
      <set comment="kpoint 5">
       <r>   -5.0795    1.0000 </r>
       <r>   -5.0795    1.0000 </r>
       <r>   -3.8417    1.0000 </r>
       <r>   -3.8417    1.0000 </r>
       <r>   -1.1786    1.0000 </r>
       <r>   -1.1786    1.0000 </r>
       <r>    2.2380    1.0000 </r>
       <r>    2.2380    1.0000 </r>
       <r>    3.8793    1.0000 </r>
       <r>    3.8793    1.0000 </r>
       <r>    3.8793    1.0000 </r>
       <r>    3.8793    1.0000 </r>
       <r>    4.5629    1.0000 </r>
       <r>    4.5629    1.0000 </r>
       <r>    4.5629    1.0000 </r>
       <r>    4.5629    1.0000 </r>
       <r>    6.8923    0.0000 </r>
       <r>    6.8923    0.0000 </r>
       <r>    7.2686    0.0000 </r>
       <r>    7.2686    0.0000 </r>
       <r>    8.8888    0.0000 </r>
       <r>    8.8888    0.0000 </r>
       <r>    9.0973    0.0000 </r>
       <r>    9.0973    0.0000 </r>
      </set>
      <set comment="kpoint 6">
       <r>   -6.0679    1.0000 </r>
       <r>   -4.8146    1.0000 </r>
       <r>   -3.3809    1.0000 </r>
       <r>   -2.0785    1.0000 </r>
       <r>   -1.9424    1.0000 </r>
       <r>   -0.5403    1.0000 </r>
       <r>    1.2903    1.0000 </r>
       <r>    1.5241    1.0000 </r>
       <r>    2.4479    1.0000 </r>
       <r>    2.7780    1.0000 </r>
       <r>    2.9929    1.0000 </r>
       <r>    3.9519    1.0000 </r>
       <r>    4.9138    1.0000 </r>
       <r>    5.0152    1.0000 </r>
       <r>    5.4055    1.0000 </r>
       <r>    5.7137    1.0000 </r>
       <r>    6.5587    0.0000 </r>
       <r>    7.2476    0.0000 </r>
       <r>    7.6665    0.0000 </r>
       <r>    8.4056    0.0000 </r>
       <r>    8.4783    0.0000 </r>
       <r>    8.5442    0.0000 </r>
       <r>    8.6344    0.0000 </r>
       <r>    9.6751    0.0000 </r>
      </set>
      <set comment="kpoint 7">
       <r>   -6.0004    1.0000 </r>
       <r>   -4.7596    1.0000 </r>
       <r>   -3.4053    1.0000 </r>
       <r>   -2.9072    1.0000 </r>
       <r>   -1.0483    1.0000 </r>
       <r>   -0.7360    1.0000 </r>
       <r>    0.8844    1.0000 </r>
       <r>    1.8906    1.0000 </r>
       <r>    2.5292    1.0000 </r>
       <r>    3.0534    1.0000 </r>
       <r>    3.2438    1.0000 </r>
       <r>    3.9920    1.0000 </r>
       <r>    4.4598    1.0000 </r>
       <r>    4.8894    1.0000 </r>
       <r>    5.4778    1.0000 </r>
       <r>    5.5590    1.0000 </r>
       <r>    6.5975    0.0000 </r>
       <r>    7.3861    0.0000 </r>
       <r>    7.7272    0.0000 </r>
       <r>    8.3006    0.0000 </r>
       <r>    8.4589    0.0000 </r>
       <r>    8.5915    0.0000 </r>
       <r>    8.7093    0.0000 </r>
       <r>    9.5500    0.0000 </r>
      </set>
      <set comment="kpoint 8">
       <r>   -5.7984    1.0000 </r>
       <r>   -4.5988    1.0000 </r>
       <r>   -3.7123    1.0000 </r>
       <r>   -3.5081    1.0000 </r>
       <r>   -1.0108    1.0000 </r>
       <r>   -0.0549    1.0000 </r>
       <r>    0.2181    1.0000 </r>
       <r>    2.6924    1.0000 </r>
       <r>    2.7753    1.0000 </r>
       <r>    3.2335    1.0000 </r>
       <r>    3.6463    1.0000 </r>
       <r>    4.0413    1.0000 </r>
       <r>    4.1070    1.0000 </r>
       <r>    4.8100    1.0000 </r>
       <r>    4.9718    1.0000 </r>
       <r>    5.1834    1.0000 </r>
       <r>    6.7300    0.0000 </r>
       <r>    7.7824    0.0000 </r>
       <r>    7.8783    0.0000 </r>
       <r>    7.8914    0.0000 </r>
       <r>    8.1553    0.0000 </r>
       <r>    8.8471    0.0000 </r>
       <r>    9.2682    0.0000 </r>
       <r>    9.3623    0.0000 </r>
      </set>
      <set comment="kpoint 9">
       <r>   -5.4640    1.0000 </r>
       <r>   -4.4141    1.0000 </r>
       <r>   -4.3471    1.0000 </r>
       <r>   -3.7300    1.0000 </r>
       <r>   -1.0595    1.0000 </r>
       <r>   -0.3829    1.0000 </r>
       <r>    0.9368    1.0000 </r>
       <r>    2.7890    1.0000 </r>
       <r>    3.1909    1.0000 </r>
       <r>    3.5293    1.0000 </r>
       <r>    3.6105    1.0000 </r>
       <r>    4.2798    1.0000 </r>
       <r>    4.4253    1.0000 </r>
       <r>    4.4804    1.0000 </r>
       <r>    4.6038    1.0000 </r>
       <r>    4.6691    1.0000 </r>
       <r>    6.9725    0.0000 </r>
       <r>    7.3812    0.0000 </r>
       <r>    7.7376    0.0000 </r>
       <r>    7.9318    0.0000 </r>
       <r>    8.4058    0.0000 </r>
       <r>    9.1471    0.0000 </r>
       <r>    9.1633    0.0000 </r>
       <r>    9.2061    0.0000 </r>
      </set>
      <set comment="kpoint 10">
       <r>   -5.0007    1.0000 </r>
       <r>   -5.0007    1.0000 </r>
       <r>   -4.0370    1.0000 </r>
       <r>   -4.0370    1.0000 </r>
       <r>   -0.8309    1.0000 </r>
       <r>   -0.8309    1.0000 </r>
       <r>    1.8898    1.0000 </r>
       <r>    1.8898    1.0000 </r>
       <r>    3.7728    1.0000 </r>
       <r>    3.7728    1.0000 </r>
       <r>    3.9322    1.0000 </r>
       <r>    3.9322    1.0000 </r>
       <r>    4.3991    1.0000 </r>
       <r>    4.3991    1.0000 </r>
       <r>    4.4804    1.0000 </r>
       <r>    4.4804    1.0000 </r>
       <r>    7.3185    0.0000 </r>
       <r>    7.3185    0.0000 </r>
       <r>    7.5376    0.0000 </r>
       <r>    7.5376    0.0000 </r>
       <r>    9.0330    0.0000 </r>
       <r>    9.0330    0.0000 </r>
       <r>    9.2061    0.0000 </r>
       <r>    9.2062    0.0000 </r>
      </set>
      <set comment="kpoint 11">
       <r>   -5.8094    1.0000 </r>
       <r>   -5.3865    1.0000 </r>
       <r>   -2.7080    1.0000 </r>
       <r>   -2.2647    1.0000 </r>
       <r>   -1.6602    1.0000 </r>
       <r>   -1.1919    1.0000 </r>
       <r>    1.3804    1.0000 </r>
       <r>    1.7244    1.0000 </r>
       <r>    2.4468    1.0000 </r>
       <r>    3.1977    1.0000 </r>
       <r>    3.5254    1.0000 </r>
       <r>    3.6697    1.0000 </r>
       <r>    3.7259    1.0000 </r>
       <r>    4.6041    1.0000 </r>
       <r>    5.3115    1.0000 </r>
       <r>    5.5774    1.0000 </r>
       <r>    6.7955    0.0000 </r>
       <r>    7.1751    0.0000 </r>
       <r>    8.6735    0.0000 </r>
       <r>    8.7157    0.0000 </r>
       <r>    8.7944    0.0000 </r>
       <r>    8.8592    0.0000 </r>
       <r>    8.9049    0.0000 </r>
       <r>    9.1187    0.0000 </r>
      </set>
      <set comment="kpoint 12">
       <r>   -5.7433    1.0000 </r>
       <r>   -5.3238    1.0000 </r>
       <r>   -2.9181    1.0000 </r>
       <r>   -2.8208    1.0000 </r>
       <r>   -1.1002    1.0000 </r>
       <r>   -1.0915    1.0000 </r>
       <r>    1.6405    1.0000 </r>
       <r>    1.8710    1.0000 </r>
       <r>    1.9880    1.0000 </r>
       <r>    3.2159    1.0000 </r>
       <r>    3.2553    1.0000 </r>
       <r>    3.5771    1.0000 </r>
       <r>    4.1326    1.0000 </r>
       <r>    4.9945    1.0000 </r>
       <r>    5.2201    1.0000 </r>
       <r>    5.4056    1.0000 </r>
       <r>    6.8737    0.0000 </r>
       <r>    7.2531    0.0000 </r>
       <r>    8.1701    0.0000 </r>
       <r>    8.3232    0.0000 </r>
       <r>    8.8597    0.0000 </r>
       <r>    8.9937    0.0000 </r>
       <r>    9.1264    0.0000 </r>
       <r>    9.1397    0.0000 </r>
      </set>
      <set comment="kpoint 13">
       <r>   -5.5461    1.0000 </r>
       <r>   -5.1374    1.0000 </r>
       <r>   -3.5476    1.0000 </r>
       <r>   -3.3912    1.0000 </r>
       <r>   -0.8430    1.0000 </r>
       <r>   -0.3643    1.0000 </r>
       <r>    1.2621    1.0000 </r>
       <r>    2.3061    1.0000 </r>
       <r>    2.3065    1.0000 </r>
       <r>    2.4469    1.0000 </r>
       <r>    3.4265    1.0000 </r>
       <r>    3.7294    1.0000 </r>
       <r>    4.7405    1.0000 </r>
       <r>    4.9733    1.0000 </r>
       <r>    5.0007    1.0000 </r>
       <r>    5.1592    1.0000 </r>
       <r>    7.1012    0.0000 </r>
       <r>    7.4767    0.0000 </r>
       <r>    7.7040    0.0000 </r>
       <r>    7.9456    0.0000 </r>
       <r>    9.0394    0.0000 </r>
       <r>    9.2107    0.0000 </r>
       <r>    9.2636    0.0000 </r>
       <r>    9.3158    0.0000 </r>
      </set>
      <set comment="kpoint 14">
       <r>   -5.2204    1.0000 </r>
       <r>   -4.8329    1.0000 </r>
       <r>   -4.2090    1.0000 </r>
       <r>   -3.9259    1.0000 </r>
       <r>   -0.4812    1.0000 </r>
       <r>    0.3284    1.0000 </r>
       <r>    0.5801    1.0000 </r>
       <r>    1.7006    1.0000 </r>
       <r>    2.9892    1.0000 </r>
       <r>    3.1779    1.0000 </r>
       <r>    3.7054    1.0000 </r>
       <r>    3.9724    1.0000 </r>
       <r>    4.5271    1.0000 </r>
       <r>    4.6383    1.0000 </r>
       <r>    4.6392    1.0000 </r>
       <r>    4.7492    1.0000 </r>
       <r>    7.4526    0.0000 </r>
       <r>    7.6531    0.0000 </r>
       <r>    7.7954    0.0000 </r>
       <r>    8.1398    0.0000 </r>
       <r>    9.0293    0.0000 </r>
       <r>    9.1282    0.0000 </r>
       <r>    9.4481    0.0000 </r>
       <r>    9.7230    0.0000 </r>
      </set>
      <set comment="kpoint 15">
       <r>   -4.7717    1.0000 </r>
       <r>   -4.7717    1.0000 </r>
       <r>   -4.4217    1.0000 </r>
       <r>   -4.4217    1.0000 </r>
       <r>   -0.0059    1.0000 </r>
       <r>   -0.0059    1.0000 </r>
       <r>    1.0017    1.0000 </r>
       <r>    1.0017    1.0000 </r>
       <r>    3.8186    1.0000 </r>
       <r>    3.8186    1.0000 </r>
       <r>    4.0769    1.0000 </r>
       <r>    4.0769    1.0000 </r>
       <r>    4.0800    1.0000 </r>
       <r>    4.0800    1.0000 </r>
       <r>    4.2866    1.0000 </r>
       <r>    4.2866    1.0000 </r>
       <r>    7.8671    0.0000 </r>
       <r>    7.8671    0.0000 </r>
       <r>    7.9754    0.0000 </r>
       <r>    7.9754    0.0000 </r>
       <r>    9.0956    0.0000 </r>
       <r>    9.0956    0.0000 </r>
       <r>    9.7856    0.0000 </r>
       <r>    9.7861    0.0000 </r>
      </set>
      <set comment="kpoint 16">
       <r>   -6.0830    1.0000 </r>
       <r>   -4.0518    1.0000 </r>
       <r>   -4.0518    1.0000 </r>
       <r>   -2.0704    1.0000 </r>
       <r>   -1.9587    1.0000 </r>
       <r>    0.2508    1.0000 </r>
       <r>    0.2508    1.0000 </r>
       <r>    2.0874    1.0000 </r>
       <r>    2.0874    1.0000 </r>
       <r>    2.5163    1.0000 </r>
       <r>    2.9809    1.0000 </r>
       <r>    4.0452    1.0000 </r>
       <r>    4.0452    1.0000 </r>
       <r>    5.1216    1.0000 </r>
       <r>    5.4618    1.0000 </r>
       <r>    5.7208    1.0000 </r>
       <r>    6.5449    0.0000 </r>
       <r>    7.1275    0.0000 </r>
       <r>    8.3901    0.0000 </r>
       <r>    8.4523    0.0000 </r>
       <r>    8.5234    0.0000 </r>
       <r>    8.8149    0.0000 </r>
       <r>    8.8149    0.0000 </r>
       <r>    9.5199    0.0000 </r>
      </set>
      <set comment="kpoint 17">
       <r>   -6.0153    1.0000 </r>
       <r>   -4.0167    1.0000 </r>
       <r>   -4.0167    1.0000 </r>
       <r>   -2.9148    1.0000 </r>
       <r>   -1.0460    1.0000 </r>
       <r>   -0.0517    1.0000 </r>
       <r>   -0.0517    1.0000 </r>
       <r>    2.4650    1.0000 </r>
       <r>    2.4650    1.0000 </r>
       <r>    2.5941    1.0000 </r>
       <r>    3.0415    1.0000 </r>
       <r>    4.0777    1.0000 </r>
       <r>    4.0777    1.0000 </r>
       <r>    4.5655    1.0000 </r>
       <r>    5.4808    1.0000 </r>
       <r>    5.5819    1.0000 </r>
       <r>    6.5734    0.0000 </r>
       <r>    7.2772    0.0000 </r>
       <r>    8.3230    0.0000 </r>
       <r>    8.5447    0.0000 </r>
       <r>    8.7007    0.0000 </r>
       <r>    8.7941    0.0000 </r>
       <r>    8.7941    0.0000 </r>
       <r>    9.0769    0.0000 </r>
      </set>
      <set comment="kpoint 18">
       <r>   -5.8131    1.0000 </r>
       <r>   -3.9245    1.0000 </r>
       <r>   -3.9245    1.0000 </r>
       <r>   -3.7229    1.0000 </r>
       <r>   -0.5748    1.0000 </r>
       <r>   -0.5748    1.0000 </r>
       <r>   -0.0402    1.0000 </r>
       <r>    2.8294    1.0000 </r>
       <r>    3.1845    1.0000 </r>
       <r>    3.1845    1.0000 </r>
       <r>    3.2221    1.0000 </r>
       <r>    3.7473    1.0000 </r>
       <r>    4.1686    1.0000 </r>
       <r>    4.1686    1.0000 </r>
       <r>    4.9691    1.0000 </r>
       <r>    5.1681    1.0000 </r>
       <r>    6.6893    0.0000 </r>
       <r>    7.6926    0.0000 </r>
       <r>    8.1069    0.0000 </r>
       <r>    8.3245    0.0000 </r>
       <r>    8.3245    0.0000 </r>
       <r>    8.9061    0.0000 </r>
       <r>    8.9946    0.0000 </r>
       <r>    8.9946    0.0000 </r>
      </set>
      <set comment="kpoint 19">
       <r>   -5.4783    1.0000 </r>
       <r>   -4.4266    1.0000 </r>
       <r>   -3.8188    1.0000 </r>
       <r>   -3.8188    1.0000 </r>
       <r>   -0.9864    1.0000 </r>
       <r>   -0.9864    1.0000 </r>
       <r>    0.9706    1.0000 </r>
       <r>    2.8737    1.0000 </r>
       <r>    3.2257    1.0000 </r>
       <r>    3.5188    1.0000 </r>
       <r>    3.7954    1.0000 </r>
       <r>    3.7954    1.0000 </r>
       <r>    4.3116    1.0000 </r>
       <r>    4.3116    1.0000 </r>
       <r>    4.4187    1.0000 </r>
       <r>    4.4673    1.0000 </r>
       <r>    6.9197    0.0000 </r>
       <r>    7.6770    0.0000 </r>
       <r>    7.9043    0.0000 </r>
       <r>    7.9043    0.0000 </r>
       <r>    8.3324    0.0000 </r>
       <r>    9.0451    0.0000 </r>
       <r>    9.0451    0.0000 </r>
       <r>    9.6477    0.0000 </r>
      </set>
      <set comment="kpoint 20">
       <r>   -5.0143    1.0000 </r>
       <r>   -5.0143    1.0000 </r>
       <r>   -3.7698    1.0000 </r>
       <r>   -3.7698    1.0000 </r>
       <r>   -1.1425    1.0000 </r>
       <r>   -1.1425    1.0000 </r>
       <r>    1.9493    1.0000 </r>
       <r>    1.9493    1.0000 </r>
       <r>    3.7820    1.0000 </r>
       <r>    3.7820    1.0000 </r>
       <r>    3.9231    1.0000 </r>
       <r>    3.9231    1.0000 </r>
       <r>    4.0002    1.0000 </r>
       <r>    4.0002    1.0000 </r>
       <r>    4.4287    1.0000 </r>
       <r>    4.4287    1.0000 </r>
       <r>    7.2589    0.0000 </r>
       <r>    7.2589    0.0000 </r>
       <r>    7.7594    0.0000 </r>
       <r>    7.7594    0.0000 </r>
       <r>    8.9929    0.0000 </r>
       <r>    8.9929    0.0000 </r>
       <r>    9.1477    0.0000 </r>
       <r>    9.1477    0.0000 </r>
      </set>
      <set comment="kpoint 21">
       <r>   -5.9961    1.0000 </r>
       <r>   -4.7423    1.0000 </r>
       <r>   -3.3070    1.0000 </r>
       <r>   -2.0008    1.0000 </r>
       <r>   -1.9764    1.0000 </r>
       <r>   -0.5770    1.0000 </r>
       <r>    1.2478    1.0000 </r>
       <r>    1.5841    1.0000 </r>
       <r>    2.5067    1.0000 </r>
       <r>    2.5872    1.0000 </r>
       <r>    2.8223    1.0000 </r>
       <r>    3.5618    1.0000 </r>
       <r>    4.5071    1.0000 </r>
       <r>    4.8715    1.0000 </r>
       <r>    5.2214    1.0000 </r>
       <r>    5.2291    1.0000 </r>
       <r>    7.2056    0.0000 </r>
       <r>    7.3118    0.0000 </r>
       <r>    7.9712    0.0000 </r>
       <r>    8.2860    0.0000 </r>
       <r>    8.7556    0.0000 </r>
       <r>    9.0375    0.0000 </r>
       <r>    9.0401    0.0000 </r>
       <r>    9.2422    0.0000 </r>
      </set>
      <set comment="kpoint 22">
       <r>   -5.9289    1.0000 </r>
       <r>   -4.6875    1.0000 </r>
       <r>   -3.3320    1.0000 </r>
       <r>   -2.8645    1.0000 </r>
       <r>   -1.0573    1.0000 </r>
       <r>   -0.7494    1.0000 </r>
       <r>    0.8759    1.0000 </r>
       <r>    1.9001    1.0000 </r>
       <r>    2.5266    1.0000 </r>
       <r>    2.7242    1.0000 </r>
       <r>    3.2319    1.0000 </r>
       <r>    3.6289    1.0000 </r>
       <r>    4.2681    1.0000 </r>
       <r>    4.4744    1.0000 </r>
       <r>    4.9640    1.0000 </r>
       <r>    5.5632    1.0000 </r>
       <r>    7.1526    0.0000 </r>
       <r>    7.5347    0.0000 </r>
       <r>    8.3213    0.0000 </r>
       <r>    8.3434    0.0000 </r>
       <r>    8.4500    0.0000 </r>
       <r>    8.7408    0.0000 </r>
       <r>    8.9110    0.0000 </r>
       <r>    9.2478    0.0000 </r>
      </set>
      <set comment="kpoint 23">
       <r>   -5.7280    1.0000 </r>
       <r>   -4.5273    1.0000 </r>
       <r>   -3.6589    1.0000 </r>
       <r>   -3.4365    1.0000 </r>
       <r>   -0.9957    1.0000 </r>
       <r>   -0.1043    1.0000 </r>
       <r>    0.2373    1.0000 </r>
       <r>    2.5724    1.0000 </r>
       <r>    2.6661    1.0000 </r>
       <r>    3.0545    1.0000 </r>
       <r>    3.4483    1.0000 </r>
       <r>    3.8363    1.0000 </r>
       <r>    3.9307    1.0000 </r>
       <r>    4.3659    1.0000 </r>
       <r>    4.4174    1.0000 </r>
       <r>    5.4706    1.0000 </r>
       <r>    7.2133    0.0000 </r>
       <r>    7.9814    0.0000 </r>
       <r>    8.0615    0.0000 </r>
       <r>    8.4762    0.0000 </r>
       <r>    8.5301    0.0000 </r>
       <r>    8.8140    0.0000 </r>
       <r>    9.0593    0.0000 </r>
       <r>    9.1284    0.0000 </r>
      </set>
      <set comment="kpoint 24">
       <r>   -5.3955    1.0000 </r>
       <r>   -4.3536    1.0000 </r>
       <r>   -4.2765    1.0000 </r>
       <r>   -3.6599    1.0000 </r>
       <r>   -1.0288    1.0000 </r>
       <r>   -0.3508    1.0000 </r>
       <r>    0.8348    1.0000 </r>
       <r>    2.6027    1.0000 </r>
       <r>    2.9400    1.0000 </r>
       <r>    3.2481    1.0000 </r>
       <r>    3.5547    1.0000 </r>
       <r>    3.8432    1.0000 </r>
       <r>    4.1000    1.0000 </r>
       <r>    4.1874    1.0000 </r>
       <r>    4.4937    1.0000 </r>
       <r>    4.9001    1.0000 </r>
       <r>    7.4102    0.0000 </r>
       <r>    7.8525    0.0000 </r>
       <r>    8.1178    0.0000 </r>
       <r>    8.2559    0.0000 </r>
       <r>    8.6172    0.0000 </r>
       <r>    8.9185    0.0000 </r>
       <r>    9.0172    0.0000 </r>
       <r>    9.3777    0.0000 </r>
      </set>
      <set comment="kpoint 25">
       <r>   -4.9354    1.0000 </r>
       <r>   -4.9354    1.0000 </r>
       <r>   -3.9671    1.0000 </r>
       <r>   -3.9671    1.0000 </r>
       <r>   -0.7953    1.0000 </r>
       <r>   -0.7953    1.0000 </r>
       <r>    1.7366    1.0000 </r>
       <r>    1.7366    1.0000 </r>
       <r>    3.3384    1.0000 </r>
       <r>    3.3384    1.0000 </r>
       <r>    3.7538    1.0000 </r>
       <r>    3.7538    1.0000 </r>
       <r>    4.1974    1.0000 </r>
       <r>    4.1974    1.0000 </r>
       <r>    4.5328    1.0000 </r>
       <r>    4.5328    1.0000 </r>
       <r>    7.7230    0.0000 </r>
       <r>    7.7230    0.0000 </r>
       <r>    7.8999    0.0000 </r>
       <r>    7.8999    0.0000 </r>
       <r>    9.1754    0.0000 </r>
       <r>    9.1754    0.0000 </r>
       <r>    9.3960    0.0000 </r>
       <r>    9.3973    0.0000 </r>
      </set>
      <set comment="kpoint 26">
       <r>   -5.7375    1.0000 </r>
       <r>   -5.3145    1.0000 </r>
       <r>   -2.6325    1.0000 </r>
       <r>   -2.1877    1.0000 </r>
       <r>   -1.6947    1.0000 </r>
       <r>   -1.2272    1.0000 </r>
       <r>    1.4414    1.0000 </r>
       <r>    1.7846    1.0000 </r>
       <r>    2.3981    1.0000 </r>
       <r>    2.7962    1.0000 </r>
       <r>    3.1299    1.0000 </r>
       <r>    3.6633    1.0000 </r>
       <r>    3.6876    1.0000 </r>
       <r>    4.5571    1.0000 </r>
       <r>    4.8641    1.0000 </r>
       <r>    5.0765    1.0000 </r>
       <r>    7.4359    0.0000 </r>
       <r>    7.8056    0.0000 </r>
       <r>    7.9064    0.0000 </r>
       <r>    8.2004    0.0000 </r>
       <r>    8.9640    0.0000 </r>
       <r>    9.3140    0.0000 </r>
       <r>    9.3688    0.0000 </r>
       <r>    9.6612    0.0000 </r>
      </set>
      <set comment="kpoint 27">
       <r>   -5.6717    1.0000 </r>
       <r>   -5.2521    1.0000 </r>
       <r>   -2.8493    1.0000 </r>
       <r>   -2.7672    1.0000 </r>
       <r>   -1.1126    1.0000 </r>
       <r>   -1.1082    1.0000 </r>
       <r>    1.6605    1.0000 </r>
       <r>    1.9001    1.0000 </r>
       <r>    1.9745    1.0000 </r>
       <r>    2.8919    1.0000 </r>
       <r>    3.1797    1.0000 </r>
       <r>    3.2146    1.0000 </r>
       <r>    4.1009    1.0000 </r>
       <r>    4.7349    1.0000 </r>
       <r>    4.7825    1.0000 </r>
       <r>    5.0120    1.0000 </r>
       <r>    7.5031    0.0000 </r>
       <r>    7.8762    0.0000 </r>
       <r>    8.1269    0.0000 </r>
       <r>    8.1697    0.0000 </r>
       <r>    8.9652    0.0000 </r>
       <r>    9.0548    0.0000 </r>
       <r>    9.2211    0.0000 </r>
       <r>    9.6618    0.0000 </r>
      </set>
      <set comment="kpoint 28">
       <r>   -5.4755    1.0000 </r>
       <r>   -5.0665    1.0000 </r>
       <r>   -3.4908    1.0000 </r>
       <r>   -3.3270    1.0000 </r>
       <r>   -0.8342    1.0000 </r>
       <r>   -0.3798    1.0000 </r>
       <r>    1.2746    1.0000 </r>
       <r>    2.1987    1.0000 </r>
       <r>    2.2206    1.0000 </r>
       <r>    2.4294    1.0000 </r>
       <r>    3.1925    1.0000 </r>
       <r>    3.4817    1.0000 </r>
       <r>    4.3153    1.0000 </r>
       <r>    4.3817    1.0000 </r>
       <r>    4.6951    1.0000 </r>
       <r>    5.2857    1.0000 </r>
       <r>    7.6987    0.0000 </r>
       <r>    8.0794    0.0000 </r>
       <r>    8.0931    0.0000 </r>
       <r>    8.3610    0.0000 </r>
       <r>    8.9693    0.0000 </r>
       <r>    9.0317    0.0000 </r>
       <r>    9.3309    0.0000 </r>
       <r>    9.4538    0.0000 </r>
      </set>
      <set comment="kpoint 29">
       <r>   -5.1516    1.0000 </r>
       <r>   -4.7635    1.0000 </r>
       <r>   -4.1470    1.0000 </r>
       <r>   -3.8608    1.0000 </r>
       <r>   -0.4581    1.0000 </r>
       <r>    0.3138    1.0000 </r>
       <r>    0.6045    1.0000 </r>
       <r>    1.6903    1.0000 </r>
       <r>    2.6712    1.0000 </r>
       <r>    2.8247    1.0000 </r>
       <r>    3.7140    1.0000 </r>
       <r>    3.7415    1.0000 </r>
       <r>    3.9187    1.0000 </r>
       <r>    3.9516    1.0000 </r>
       <r>    4.8878    1.0000 </r>
       <r>    5.0296    1.0000 </r>
       <r>    8.0015    0.0000 </r>
       <r>    8.0641    0.0000 </r>
       <r>    8.3599    0.0000 </r>
       <r>    8.5111    0.0000 </r>
       <r>    9.0635    0.0000 </r>
       <r>    9.2027    0.0000 </r>
       <r>    9.2800    0.0000 </r>
       <r>    9.4611    0.0000 </r>
      </set>
      <set comment="kpoint 30">
       <r>   -4.7057    1.0000 </r>
       <r>   -4.7057    1.0000 </r>
       <r>   -4.3543    1.0000 </r>
       <r>   -4.3543    1.0000 </r>
       <r>    0.0216    1.0000 </r>
       <r>    0.0216    1.0000 </r>
       <r>    0.9909    1.0000 </r>
       <r>    0.9909    1.0000 </r>
       <r>    3.1847    1.0000 </r>
       <r>    3.1847    1.0000 </r>
       <r>    3.3979    1.0000 </r>
       <r>    3.3979    1.0000 </r>
       <r>    4.3930    1.0000 </r>
       <r>    4.3930    1.0000 </r>
       <r>    4.5308    1.0000 </r>
       <r>    4.5308    1.0000 </r>
       <r>    8.3264    0.0000 </r>
       <r>    8.3264    0.0000 </r>
       <r>    8.3583    0.0000 </r>
       <r>    8.3583    0.0000 </r>
       <r>    9.0561    0.0000 </r>
       <r>    9.0561    0.0000 </r>
       <r>    9.4147    0.0000 </r>
       <r>    9.4147    0.0000 </r>
      </set>
      <set comment="kpoint 31">
       <r>   -5.8689    1.0000 </r>
       <r>   -3.8343    1.0000 </r>
       <r>   -3.8343    1.0000 </r>
       <r>   -2.2144    1.0000 </r>
       <r>   -1.7254    1.0000 </r>
       <r>    0.0825    1.0000 </r>
       <r>    0.0825    1.0000 </r>
       <r>    1.8376    1.0000 </r>
       <r>    2.2465    1.0000 </r>
       <r>    2.2465    1.0000 </r>
       <r>    3.1508    1.0000 </r>
       <r>    3.3748    1.0000 </r>
       <r>    3.3748    1.0000 </r>
       <r>    3.9657    1.0000 </r>
       <r>    4.7669    1.0000 </r>
       <r>    5.6110    1.0000 </r>
       <r>    6.7412    0.0000 </r>
       <r>    8.4311    0.0000 </r>
       <r>    8.4311    0.0000 </r>
       <r>    8.5695    0.0000 </r>
       <r>    8.6116    0.0000 </r>
       <r>    8.6894    0.0000 </r>
       <r>    8.7789    0.0000 </r>
       <r>    9.2727    0.0000 </r>
      </set>
      <set comment="kpoint 32">
       <r>   -5.8025    1.0000 </r>
       <r>   -3.7996    1.0000 </r>
       <r>   -3.7996    1.0000 </r>
       <r>   -2.8322    1.0000 </r>
       <r>   -1.0879    1.0000 </r>
       <r>   -0.1304    1.0000 </r>
       <r>   -0.1304    1.0000 </r>
       <r>    1.9681    1.0000 </r>
       <r>    2.4106    1.0000 </r>
       <r>    2.4106    1.0000 </r>
       <r>    3.2092    1.0000 </r>
       <r>    3.4460    1.0000 </r>
       <r>    3.4928    1.0000 </r>
       <r>    3.4928    1.0000 </r>
       <r>    5.1301    1.0000 </r>
       <r>    5.4254    1.0000 </r>
       <r>    6.8172    0.0000 </r>
       <r>    8.0048    0.0000 </r>
       <r>    8.0048    0.0000 </r>
       <r>    8.1683    0.0000 </r>
       <r>    8.6626    0.0000 </r>
       <r>    8.8245    0.0000 </r>
       <r>    9.0533    0.0000 </r>
       <r>    9.9173    0.0000 </r>
      </set>
      <set comment="kpoint 33">
       <r>   -5.6040    1.0000 </r>
       <r>   -3.7086    1.0000 </r>
       <r>   -3.7086    1.0000 </r>
       <r>   -3.5820    1.0000 </r>
       <r>   -0.5532    1.0000 </r>
       <r>   -0.5532    1.0000 </r>
       <r>   -0.2872    1.0000 </r>
       <r>    2.3605    1.0000 </r>
       <r>    2.6695    1.0000 </r>
       <r>    2.6943    1.0000 </r>
       <r>    2.6943    1.0000 </r>
       <r>    3.3826    1.0000 </r>
       <r>    3.7733    1.0000 </r>
       <r>    3.7733    1.0000 </r>
       <r>    4.9971    1.0000 </r>
       <r>    5.1914    1.0000 </r>
       <r>    7.0378    0.0000 </r>
       <r>    7.6778    0.0000 </r>
       <r>    7.6778    0.0000 </r>
       <r>    8.0374    0.0000 </r>
       <r>    8.9428    0.0000 </r>
       <r>    8.9457    0.0000 </r>
       <r>    9.3377    0.0000 </r>
       <r>   10.2335    0.0000 </r>
      </set>
      <set comment="kpoint 34">
       <r>   -5.2762    1.0000 </r>
       <r>   -4.2545    1.0000 </r>
       <r>   -3.6044    1.0000 </r>
       <r>   -3.6044    1.0000 </r>
       <r>   -0.9143    1.0000 </r>
       <r>   -0.9143    1.0000 </r>
       <r>    0.4661    1.0000 </r>
       <r>    1.9090    1.0000 </r>
       <r>    2.9156    1.0000 </r>
       <r>    2.9156    1.0000 </r>
       <r>    2.9943    1.0000 </r>
       <r>    3.6657    1.0000 </r>
       <r>    3.9866    1.0000 </r>
       <r>    3.9866    1.0000 </r>
       <r>    4.5058    1.0000 </r>
       <r>    4.6098    1.0000 </r>
       <r>    7.3796    0.0000 </r>
       <r>    7.8691    0.0000 </r>
       <r>    7.8691    0.0000 </r>
       <r>    8.1424    0.0000 </r>
       <r>    9.0855    0.0000 </r>
       <r>    9.4259    0.0000 </r>
       <r>    9.7107    0.0000 </r>
       <r>    9.7107    0.0000 </r>
      </set>
      <set comment="kpoint 35">
       <r>   -4.8237    1.0000 </r>
       <r>   -4.8237    1.0000 </r>
       <r>   -3.5560    1.0000 </r>
       <r>   -3.5560    1.0000 </r>
       <r>   -1.0554    1.0000 </r>
       <r>   -1.0554    1.0000 </r>
       <r>    1.1836    1.0000 </r>
       <r>    1.1836    1.0000 </r>
       <r>    3.0053    1.0000 </r>
       <r>    3.0053    1.0000 </r>
       <r>    3.7906    1.0000 </r>
       <r>    3.7906    1.0000 </r>
       <r>    4.0381    1.0000 </r>
       <r>    4.0381    1.0000 </r>
       <r>    4.0473    1.0000 </r>
       <r>    4.0473    1.0000 </r>
       <r>    7.7928    0.0000 </r>
       <r>    7.7928    0.0000 </r>
       <r>    8.4149    0.0000 </r>
       <r>    8.4149    0.0000 </r>
       <r>    8.8637    0.0000 </r>
       <r>    8.8637    0.0000 </r>
       <r>    9.8747    0.0000 </r>
       <r>    9.8747    0.0000 </r>
      </set>
      <set comment="kpoint 36">
       <r>   -5.7819    1.0000 </r>
       <r>   -4.5265    1.0000 </r>
       <r>   -3.0862    1.0000 </r>
       <r>   -2.1209    1.0000 </r>
       <r>   -1.7680    1.0000 </r>
       <r>   -0.7341    1.0000 </r>
       <r>    1.0590    1.0000 </r>
       <r>    1.7597    1.0000 </r>
       <r>    1.9102    1.0000 </r>
       <r>    2.6806    1.0000 </r>
       <r>    2.8989    1.0000 </r>
       <r>    2.9404    1.0000 </r>
       <r>    3.8055    1.0000 </r>
       <r>    3.8796    1.0000 </r>
       <r>    4.6852    1.0000 </r>
       <r>    5.0210    1.0000 </r>
       <r>    7.5020    0.0000 </r>
       <r>    7.7224    0.0000 </r>
       <r>    7.8188    0.0000 </r>
       <r>    8.6427    0.0000 </r>
       <r>    9.0410    0.0000 </r>
       <r>    9.3538    0.0000 </r>
       <r>    9.3918    0.0000 </r>
       <r>    9.5454    0.0000 </r>
      </set>
      <set comment="kpoint 37">
       <r>   -5.7159    1.0000 </r>
       <r>   -4.4725    1.0000 </r>
       <r>   -3.1136    1.0000 </r>
       <r>   -2.7711    1.0000 </r>
       <r>   -1.1024    1.0000 </r>
       <r>   -0.8374    1.0000 </r>
       <r>    0.7920    1.0000 </r>
       <r>    1.8784    1.0000 </r>
       <r>    2.0015    1.0000 </r>
       <r>    2.7887    1.0000 </r>
       <r>    3.0821    1.0000 </r>
       <r>    3.1276    1.0000 </r>
       <r>    3.3862    1.0000 </r>
       <r>    3.8112    1.0000 </r>
       <r>    4.7403    1.0000 </r>
       <r>    5.0987    1.0000 </r>
       <r>    7.5628    0.0000 </r>
       <r>    7.6181    0.0000 </r>
       <r>    8.1012    0.0000 </r>
       <r>    8.6893    0.0000 </r>
       <r>    8.7411    0.0000 </r>
       <r>    9.0002    0.0000 </r>
       <r>    9.5093    0.0000 </r>
       <r>    9.6054    0.0000 </r>
      </set>
      <set comment="kpoint 38">
       <r>   -5.5187    1.0000 </r>
       <r>   -4.3144    1.0000 </r>
       <r>   -3.5145    1.0000 </r>
       <r>   -3.2244    1.0000 </r>
       <r>   -0.9869    1.0000 </r>
       <r>   -0.3153    1.0000 </r>
       <r>    0.2566    1.0000 </r>
       <r>    2.1354    1.0000 </r>
       <r>    2.2567    1.0000 </r>
       <r>    2.6289    1.0000 </r>
       <r>    3.1235    1.0000 </r>
       <r>    3.2954    1.0000 </r>
       <r>    3.5503    1.0000 </r>
       <r>    3.9087    1.0000 </r>
       <r>    4.2233    1.0000 </r>
       <r>    5.3477    1.0000 </r>
       <r>    7.7371    0.0000 </r>
       <r>    7.7401    0.0000 </r>
       <r>    8.0797    0.0000 </r>
       <r>    8.4931    0.0000 </r>
       <r>    8.9425    0.0000 </r>
       <r>    9.0391    0.0000 </r>
       <r>    9.3827    0.0000 </r>
       <r>    9.8681    0.0000 </r>
      </set>
      <set comment="kpoint 39">
       <r>   -5.1931    1.0000 </r>
       <r>   -4.1801    1.0000 </r>
       <r>   -4.0668    1.0000 </r>
       <r>   -3.4531    1.0000 </r>
       <r>   -0.9631    1.0000 </r>
       <r>   -0.2818    1.0000 </r>
       <r>    0.4306    1.0000 </r>
       <r>    1.8753    1.0000 </r>
       <r>    2.4473    1.0000 </r>
       <r>    2.6333    1.0000 </r>
       <r>    3.1204    1.0000 </r>
       <r>    3.6420    1.0000 </r>
       <r>    3.6829    1.0000 </r>
       <r>    4.0358    1.0000 </r>
       <r>    4.1326    1.0000 </r>
       <r>    5.0456    1.0000 </r>
       <r>    7.8601    0.0000 </r>
       <r>    8.0185    0.0000 </r>
       <r>    8.3005    0.0000 </r>
       <r>    8.6136    0.0000 </r>
       <r>    9.0328    0.0000 </r>
       <r>    9.1519    0.0000 </r>
       <r>    9.5417    0.0000 </r>
       <r>    9.9106    0.0000 </r>
      </set>
      <set comment="kpoint 40">
       <r>   -4.7441    1.0000 </r>
       <r>   -4.7441    1.0000 </r>
       <r>   -3.7604    1.0000 </r>
       <r>   -3.7604    1.0000 </r>
       <r>   -0.7119    1.0000 </r>
       <r>   -0.7119    1.0000 </r>
       <r>    1.1492    1.0000 </r>
       <r>    1.1492    1.0000 </r>
       <r>    2.7929    1.0000 </r>
       <r>    2.7929    1.0000 </r>
       <r>    3.1007    1.0000 </r>
       <r>    3.1007    1.0000 </r>
       <r>    4.2388    1.0000 </r>
       <r>    4.2388    1.0000 </r>
       <r>    4.3860    1.0000 </r>
       <r>    4.3860    1.0000 </r>
       <r>    8.1914    0.0000 </r>
       <r>    8.1914    0.0000 </r>
       <r>    8.3638    0.0000 </r>
       <r>    8.3638    0.0000 </r>
       <r>    9.3982    0.0000 </r>
       <r>    9.3982    0.0000 </r>
       <r>    9.4889    0.0000 </r>
       <r>    9.4889    0.0000 </r>
      </set>
      <set comment="kpoint 41">
       <r>   -5.5231    1.0000 </r>
       <r>   -5.0996    1.0000 </r>
       <r>   -2.4067    1.0000 </r>
       <r>   -1.9571    1.0000 </r>
       <r>   -1.8414    1.0000 </r>
       <r>   -1.3778    1.0000 </r>
       <r>    1.6209    1.0000 </r>
       <r>    1.9624    1.0000 </r>
       <r>    2.1236    1.0000 </r>
       <r>    2.1642    1.0000 </r>
       <r>    2.4633    1.0000 </r>
       <r>    3.2777    1.0000 </r>
       <r>    3.7064    1.0000 </r>
       <r>    4.1140    1.0000 </r>
       <r>    4.3499    1.0000 </r>
       <r>    4.3652    1.0000 </r>
       <r>    7.2951    0.0000 </r>
       <r>    7.2985    0.0000 </r>
       <r>    8.8570    0.0000 </r>
       <r>    9.1366    0.0000 </r>
       <r>    9.1922    0.0000 </r>
       <r>    9.2167    0.0000 </r>
       <r>    9.7570    0.0000 </r>
       <r>   10.3609    0.0000 </r>
      </set>
      <set comment="kpoint 42">
       <r>   -5.4585    1.0000 </r>
       <r>   -5.0382    1.0000 </r>
       <r>   -2.6517    1.0000 </r>
       <r>   -2.6338    1.0000 </r>
       <r>   -1.1989    1.0000 </r>
       <r>   -1.1733    1.0000 </r>
       <r>    1.6623    1.0000 </r>
       <r>    1.8547    1.0000 </r>
       <r>    1.8627    1.0000 </r>
       <r>    2.4473    1.0000 </r>
       <r>    2.6912    1.0000 </r>
       <r>    2.8933    1.0000 </r>
       <r>    3.8618    1.0000 </r>
       <r>    4.0251    1.0000 </r>
       <r>    4.0996    1.0000 </r>
       <r>    4.6455    1.0000 </r>
       <r>    7.5194    0.0000 </r>
       <r>    7.6716    0.0000 </r>
       <r>    8.8723    0.0000 </r>
       <r>    9.2315    0.0000 </r>
       <r>    9.2612    0.0000 </r>
       <r>    9.4819    0.0000 </r>
       <r>    9.6701    0.0000 </r>
       <r>    9.6808    0.0000 </r>
      </set>
      <set comment="kpoint 43">
       <r>   -5.2657    1.0000 </r>
       <r>   -4.8557    1.0000 </r>
       <r>   -3.3339    1.0000 </r>
       <r>   -3.1433    1.0000 </r>
       <r>   -0.8497    1.0000 </r>
       <r>   -0.4848    1.0000 </r>
       <r>    1.2550    1.0000 </r>
       <r>    1.8156    1.0000 </r>
       <r>    1.9031    1.0000 </r>
       <r>    2.2176    1.0000 </r>
       <r>    3.0494    1.0000 </r>
       <r>    3.2630    1.0000 </r>
       <r>    3.4732    1.0000 </r>
       <r>    3.5477    1.0000 </r>
       <r>    4.3838    1.0000 </r>
       <r>    5.0029    1.0000 </r>
       <r>    8.1246    0.0000 </r>
       <r>    8.5499    0.0000 </r>
       <r>    8.8538    0.0000 </r>
       <r>    8.9633    0.0000 </r>
       <r>    9.1175    0.0000 </r>
       <r>    9.4561    0.0000 </r>
       <r>    9.5463    0.0000 </r>
       <r>    9.5786    0.0000 </r>
      </set>
      <set comment="kpoint 44">
       <r>   -4.9482    1.0000 </r>
       <r>   -4.5578    1.0000 </r>
       <r>   -3.9686    1.0000 </r>
       <r>   -3.6716    1.0000 </r>
       <r>   -0.4305    1.0000 </r>
       <r>    0.1759    1.0000 </r>
       <r>    0.6318    1.0000 </r>
       <r>    1.5155    1.0000 </r>
       <r>    2.0960    1.0000 </r>
       <r>    2.1171    1.0000 </r>
       <r>    2.9664    1.0000 </r>
       <r>    2.9743    1.0000 </r>
       <r>    3.7994    1.0000 </r>
       <r>    3.9561    1.0000 </r>
       <r>    4.6182    1.0000 </r>
       <r>    5.0075    1.0000 </r>
       <r>    8.3518    0.0000 </r>
       <r>    8.6306    0.0000 </r>
       <r>    8.6918    0.0000 </r>
       <r>    9.1530    0.0000 </r>
       <r>    9.1873    0.0000 </r>
       <r>    9.2068    0.0000 </r>
       <r>    9.5807    0.0000 </r>
       <r>    9.7069    0.0000 </r>
      </set>
      <set comment="kpoint 45">
       <r>   -4.5123    1.0000 </r>
       <r>   -4.5123    1.0000 </r>
       <r>   -4.1561    1.0000 </r>
       <r>   -4.1561    1.0000 </r>
       <r>    0.0627    1.0000 </r>
       <r>    0.0627    1.0000 </r>
       <r>    0.8351    1.0000 </r>
       <r>    0.8351    1.0000 </r>
       <r>    2.4830    1.0000 </r>
       <r>    2.4830    1.0000 </r>
       <r>    2.4892    1.0000 </r>
       <r>    2.4892    1.0000 </r>
       <r>    4.4891    1.0000 </r>
       <r>    4.4891    1.0000 </r>
       <r>    4.5382    1.0000 </r>
       <r>    4.5382    1.0000 </r>
       <r>    8.2519    0.0000 </r>
       <r>    8.2519    0.0000 </r>
       <r>    8.7562    0.0000 </r>
       <r>    8.7562    0.0000 </r>
       <r>    9.4262    0.0000 </r>
       <r>    9.4262    0.0000 </r>
       <r>   10.0300    0.0000 </r>
       <r>   10.0300    0.0000 </r>
      </set>
      <set comment="kpoint 46">
       <r>   -5.5175    1.0000 </r>
       <r>   -3.4761    1.0000 </r>
       <r>   -3.4761    1.0000 </r>
       <r>   -2.5592    1.0000 </r>
       <r>   -1.3380    1.0000 </r>
       <r>   -0.3220    1.0000 </r>
       <r>   -0.3220    1.0000 </r>
       <r>    1.4236    1.0000 </r>
       <r>    2.4829    1.0000 </r>
       <r>    2.4829    1.0000 </r>
       <r>    2.7858    1.0000 </r>
       <r>    2.9446    1.0000 </r>
       <r>    2.9446    1.0000 </r>
       <r>    3.4249    1.0000 </r>
       <r>    3.9257    1.0000 </r>
       <r>    5.3980    1.0000 </r>
       <r>    7.0587    0.0000 </r>
       <r>    7.4868    0.0000 </r>
       <r>    7.4868    0.0000 </r>
       <r>    8.1384    0.0000 </r>
       <r>    8.1384    0.0000 </r>
       <r>    8.7891    0.0000 </r>
       <r>    8.9798    0.0000 </r>
       <r>    9.2259    0.0000 </r>
      </set>
      <set comment="kpoint 47">
       <r>   -5.4536    1.0000 </r>
       <r>   -3.4425    1.0000 </r>
       <r>   -3.4425    1.0000 </r>
       <r>   -2.8545    1.0000 </r>
       <r>   -1.1188    1.0000 </r>
       <r>   -0.4171    1.0000 </r>
       <r>   -0.4171    1.0000 </r>
       <r>    1.6505    1.0000 </r>
       <r>    2.2809    1.0000 </r>
       <r>    2.2809    1.0000 </r>
       <r>    2.3133    1.0000 </r>
       <r>    3.2266    1.0000 </r>
       <r>    3.2266    1.0000 </r>
       <r>    3.4787    1.0000 </r>
       <r>    4.3785    1.0000 </r>
       <r>    5.2849    1.0000 </r>
       <r>    7.1384    0.0000 </r>
       <r>    7.1739    0.0000 </r>
       <r>    7.1739    0.0000 </r>
       <r>    8.2656    0.0000 </r>
       <r>    8.8058    0.0000 </r>
       <r>    8.8058    0.0000 </r>
       <r>    9.0402    0.0000 </r>
       <r>    9.4000    0.0000 </r>
      </set>
      <set comment="kpoint 48">
       <r>   -5.2633    1.0000 </r>
       <r>   -3.4205    1.0000 </r>
       <r>   -3.3543    1.0000 </r>
       <r>   -3.3543    1.0000 </r>
       <r>   -0.7190    1.0000 </r>
       <r>   -0.6527    1.0000 </r>
       <r>   -0.6527    1.0000 </r>
       <r>    1.5750    1.0000 </r>
       <r>    2.1294    1.0000 </r>
       <r>    2.1294    1.0000 </r>
       <r>    2.2600    1.0000 </r>
       <r>    3.4884    1.0000 </r>
       <r>    3.4884    1.0000 </r>
       <r>    3.6375    1.0000 </r>
       <r>    4.8929    1.0000 </r>
       <r>    4.9914    1.0000 </r>
       <r>    7.1975    0.0000 </r>
       <r>    7.1975    0.0000 </r>
       <r>    7.3689    0.0000 </r>
       <r>    7.7189    0.0000 </r>
       <r>    9.2313    0.0000 </r>
       <r>    9.3212    0.0000 </r>
       <r>    9.9225    0.0000 </r>
       <r>    9.9225    0.0000 </r>
      </set>
      <set comment="kpoint 49">
       <r>   -4.9511    1.0000 </r>
       <r>   -4.0045    1.0000 </r>
       <r>   -3.2533    1.0000 </r>
       <r>   -3.2533    1.0000 </r>
       <r>   -0.8965    1.0000 </r>
       <r>   -0.8965    1.0000 </r>
       <r>   -0.2649    1.0000 </r>
       <r>    0.8761    1.0000 </r>
       <r>    2.1189    1.0000 </r>
       <r>    2.1189    1.0000 </r>
       <r>    3.0957    1.0000 </r>
       <r>    3.4991    1.0000 </r>
       <r>    3.4991    1.0000 </r>
       <r>    3.8928    1.0000 </r>
       <r>    4.6117    1.0000 </r>
       <r>    4.7345    1.0000 </r>
       <r>    7.7114    0.0000 </r>
       <r>    7.8042    0.0000 </r>
       <r>    7.8457    0.0000 </r>
       <r>    7.8457    0.0000 </r>
       <r>    9.0793    0.0000 </r>
       <r>    9.5661    0.0000 </r>
       <r>   10.0985    0.0000 </r>
       <r>   10.2388    0.0000 </r>
      </set>
      <set comment="kpoint 50">
       <r>   -4.5259    1.0000 </r>
       <r>   -4.5259    1.0000 </r>
       <r>   -3.2064    1.0000 </r>
       <r>   -3.2064    1.0000 </r>
       <r>   -1.0005    1.0000 </r>
       <r>   -1.0005    1.0000 </r>
       <r>    0.2613    1.0000 </r>
       <r>    0.2613    1.0000 </r>
       <r>    2.1392    1.0000 </r>
       <r>    2.1392    1.0000 </r>
       <r>    3.4551    1.0000 </r>
       <r>    3.4551    1.0000 </r>
       <r>    3.9932    1.0000 </r>
       <r>    3.9932    1.0000 </r>
       <r>    4.2278    1.0000 </r>
       <r>    4.2278    1.0000 </r>
       <r>    8.0086    0.0000 </r>
       <r>    8.0086    0.0000 </r>
       <r>    8.9308    0.0000 </r>
       <r>    8.9308    0.0000 </r>
       <r>    8.9369    0.0000 </r>
       <r>    8.9369    0.0000 </r>
       <r>    9.2270    0.0000 </r>
       <r>    9.2270    0.0000 </r>
      </set>
      <set comment="kpoint 51">
[...]
       <r>   -3.4191    1.0000 </r>
       <r>   -2.9868    1.0000 </r>
       <r>   -0.9068    1.0000 </r>
       <r>   -0.5199    1.0000 </r>
       <r>   -0.1778    1.0000 </r>
       <r>    0.2302    1.0000 </r>
       <r>    2.0273    1.0000 </r>
       <r>    2.1184    1.0000 </r>
       <r>    2.5310    1.0000 </r>
       <r>    2.6885    1.0000 </r>
       <r>    3.0775    1.0000 </r>
       <r>    3.2345    1.0000 </r>
       <r>    3.2785    1.0000 </r>
       <r>    3.5660    1.0000 </r>
       <r>    6.8975    0.0000 </r>
       <r>    7.1586    0.0000 </r>
       <r>    7.6190    0.0000 </r>
       <r>    8.0843    0.0000 </r>
       <r>    8.2671    0.0000 </r>
       <r>    8.8013    0.0000 </r>
       <r>    9.4660    0.0000 </r>
       <r>    9.9607    0.0000 </r>
      </set>
      <set comment="kpoint 88">
       <r>   -3.9248    1.0000 </r>
       <r>   -3.5019    1.0000 </r>
       <r>   -3.3947    1.0000 </r>
       <r>   -2.9687    1.0000 </r>
       <r>   -1.0004    1.0000 </r>
       <r>   -0.8186    1.0000 </r>
       <r>   -0.4033    1.0000 </r>
       <r>   -0.2224    1.0000 </r>
       <r>    1.7960    1.0000 </r>
       <r>    2.2614    1.0000 </r>
       <r>    2.3022    1.0000 </r>
       <r>    2.8444    1.0000 </r>
       <r>    3.3399    1.0000 </r>
       <r>    3.4241    1.0000 </r>
       <r>    3.6461    1.0000 </r>
       <r>    3.7654    1.0000 </r>
       <r>    7.0828    0.0000 </r>
       <r>    7.2773    0.0000 </r>
       <r>    7.5530    0.0000 </r>
       <r>    7.6567    0.0000 </r>
       <r>    9.3093    0.0000 </r>
       <r>    9.9535    0.0000 </r>
       <r>   10.3955    0.0000 </r>
       <r>   10.4874    0.0000 </r>
      </set>
      <set comment="kpoint 89">
       <r>   -3.7370    1.0000 </r>
       <r>   -3.4204    1.0000 </r>
       <r>   -3.3202    1.0000 </r>
       <r>   -3.0030    1.0000 </r>
       <r>   -1.0453    1.0000 </r>
       <r>   -1.0129    1.0000 </r>
       <r>   -0.6959    1.0000 </r>
       <r>   -0.6669    1.0000 </r>
       <r>    1.7798    1.0000 </r>
       <r>    2.0787    1.0000 </r>
       <r>    2.5334    1.0000 </r>
       <r>    2.8863    1.0000 </r>
       <r>    3.2837    1.0000 </r>
       <r>    3.4489    1.0000 </r>
       <r>    3.9024    1.0000 </r>
       <r>    3.9486    1.0000 </r>
       <r>    7.6689    0.0000 </r>
       <r>    7.7485    0.0000 </r>
       <r>    8.0333    0.0000 </r>
       <r>    8.1785    0.0000 </r>
       <r>    9.5213    0.0000 </r>
       <r>   10.0241    0.0000 </r>
       <r>   10.1679    0.0000 </r>
       <r>   10.6455    0.0000 </r>
      </set>
      <set comment="kpoint 90">
       <r>   -3.5446    1.0000 </r>
       <r>   -3.5446    1.0000 </r>
       <r>   -3.1312    1.0000 </r>
       <r>   -3.1312    1.0000 </r>
       <r>   -0.9612    1.0000 </r>
       <r>   -0.9612    1.0000 </r>
       <r>   -0.9414    1.0000 </r>
       <r>   -0.9414    1.0000 </r>
       <r>    1.9080    1.0000 </r>
       <r>    1.9080    1.0000 </r>
       <r>    2.7601    1.0000 </r>
       <r>    2.7601    1.0000 </r>
       <r>    3.3268    1.0000 </r>
       <r>    3.3268    1.0000 </r>
       <r>    3.9881    1.0000 </r>
       <r>    3.9881    1.0000 </r>
       <r>    8.3958    0.0000 </r>
       <r>    8.3958    0.0000 </r>
       <r>    8.7360    0.0000 </r>
       <r>    8.7360    0.0000 </r>
       <r>    9.0452    0.0000 </r>
       <r>    9.0452    0.0000 </r>
       <r>    9.4023    0.0000 </r>
       <r>    9.4023    0.0000 </r>
      </set>
     </set>
    </set>
   </array>
  </eigenvalues>
  <separator name="orbital magnetization" >
   <v name="MAGDIPOLOUT">      0.00000000      0.00000000      0.00000000</v>
  </separator>
  <dos>
   <i name="efermi">      5.82591753 </i>
   <total>
    <array>
     <dimension dim="1">gridpoints</dimension>
     <dimension dim="2">spin</dimension>
     <field>energy</field>
     <field>total</field>
     <field>integrated</field>
     <set>
      <set comment="spin 1">
       <r>    -6.9948     0.0000     0.0000 </r>
       <r>    -6.9332     0.0000     0.0000 </r>
       <r>    -6.8716     0.0000     0.0000 </r>
       <r>    -6.8100     0.0000     0.0000 </r>
       <r>    -6.7484     0.0000     0.0000 </r>
       <r>    -6.6868     0.0000     0.0000 </r>
       <r>    -6.6252     0.0000     0.0000 </r>
       <r>    -6.5636     0.0000     0.0000 </r>
       <r>    -6.5020     0.0000     0.0000 </r>
       <r>    -6.4404     0.0000     0.0000 </r>
       <r>    -6.3788     0.0000     0.0000 </r>
       <r>    -6.3172     0.0000     0.0000 </r>
       <r>    -6.2556     0.0000     0.0000 </r>
       <r>    -6.1940     0.0000     0.0000 </r>
       <r>    -6.1324     0.0737     0.0045 </r>
       <r>    -6.0708     0.3378     0.0254 </r>
       <r>    -6.0092     0.3844     0.0490 </r>
       <r>    -5.9476     0.6084     0.0865 </r>
       <r>    -5.8860     0.6429     0.1261 </r>
       <r>    -5.8244     0.2595     0.1421 </r>
       <r>    -5.7628     1.3087     0.2227 </r>
       <r>    -5.7012     1.7590     0.3311 </r>
       <r>    -5.6396     0.6012     0.3682 </r>
       <r>    -5.5780     0.2951     0.3864 </r>
       <r>    -5.5164     1.1431     0.4568 </r>
       <r>    -5.4548     2.0271     0.5817 </r>
       <r>    -5.3932     1.0641     0.6473 </r>
       <r>    -5.3316     0.9726     0.7072 </r>
       <r>    -5.2700     1.0029     0.7690 </r>
       <r>    -5.2084     1.6068     0.8679 </r>
       <r>    -5.1468     1.9532     0.9883 </r>
       <r>    -5.0852     1.3247     1.0699 </r>
       <r>    -5.0236     1.4625     1.1600 </r>
       <r>    -4.9619     0.9206     1.2167 </r>
       <r>    -4.9003     2.3934     1.3641 </r>
       <r>    -4.8387     1.7493     1.4719 </r>
       <r>    -4.7771     1.0558     1.5369 </r>
       <r>    -4.7155     2.7802     1.7082 </r>
       <r>    -4.6539     2.1554     1.8410 </r>
       <r>    -4.5923     1.4217     1.9286 </r>
       <r>    -4.5307     1.1205     1.9976 </r>
       <r>    -4.4691     2.8869     2.1754 </r>
       <r>    -4.4075     2.8535     2.3512 </r>
       <r>    -4.3459     1.7609     2.4597 </r>
       <r>    -4.2843     1.5530     2.5554 </r>
       <r>    -4.2227     1.8178     2.6674 </r>
       <r>    -4.1611     4.1032     2.9202 </r>
       <r>    -4.0995     2.0196     3.0447 </r>
       <r>    -4.0379     3.4121     3.2550 </r>
       <r>    -3.9763     2.1618     3.3882 </r>
       <r>    -3.9147     3.5240     3.6053 </r>
       <r>    -3.8531     1.3258     3.6870 </r>
       <r>    -3.7915     3.5731     3.9071 </r>
       <r>    -3.7299     3.6205     4.1301 </r>
       <r>    -3.6683     5.4300     4.4646 </r>
       <r>    -3.6067     3.3746     4.6725 </r>
       <r>    -3.5451     1.4112     4.7595 </r>
       <r>    -3.4835     3.0150     4.9452 </r>
       <r>    -3.4219     4.6995     5.2347 </r>
       <r>    -3.3603     3.3254     5.4396 </r>
       <r>    -3.2987     4.2632     5.7023 </r>
       <r>    -3.2371     1.2309     5.7782 </r>
       <r>    -3.1755     1.1601     5.8496 </r>
       <r>    -3.1139     2.7251     6.0175 </r>
       <r>    -3.0523     2.8910     6.1956 </r>
       <r>    -2.9907     2.3442     6.3400 </r>
       <r>    -2.9291     2.5586     6.4976 </r>
       <r>    -2.8675     2.7987     6.6700 </r>
       <r>    -2.8059     2.6213     6.8315 </r>
       <r>    -2.7443     3.8375     7.0679 </r>
       <r>    -2.6827     1.9228     7.1864 </r>
       <r>    -2.6211     1.4382     7.2750 </r>
       <r>    -2.5595     1.0677     7.3407 </r>
       <r>    -2.4979     0.2981     7.3591 </r>
       <r>    -2.4363     1.6670     7.4618 </r>
       <r>    -2.3747     2.9119     7.6412 </r>
       <r>    -2.3131     0.9469     7.6995 </r>
       <r>    -2.2515     1.4057     7.7861 </r>
       <r>    -2.1899     1.3349     7.8683 </r>
       <r>    -2.1283     0.6321     7.9073 </r>
       <r>    -2.0667     0.4952     7.9378 </r>
       <r>    -2.0051     0.5733     7.9731 </r>
       <r>    -1.9435     1.0076     8.0351 </r>
       <r>    -1.8819     0.0935     8.0409 </r>
       <r>    -1.8203     0.2947     8.0591 </r>
       <r>    -1.7587     0.2676     8.0756 </r>
       <r>    -1.6971     0.8641     8.1288 </r>
       <r>    -1.6355     1.6077     8.2278 </r>
       <r>    -1.5739     2.4331     8.3777 </r>
       <r>    -1.5123     0.7533     8.4242 </r>
       <r>    -1.4507     0.5932     8.4607 </r>
       <r>    -1.3891     1.9290     8.5795 </r>
       <r>    -1.3275     1.1337     8.6494 </r>
       <r>    -1.2659     0.0160     8.6504 </r>
       <r>    -1.2043     1.7248     8.7566 </r>
       <r>    -1.1427     2.9662     8.9393 </r>
       <r>    -1.0811     6.6509     9.3490 </r>
       <r>    -1.0195     6.2715     9.7355 </r>
       <r>    -0.9579     7.5554    10.2010 </r>
       <r>    -0.8963     4.4447    10.4748 </r>
       <r>    -0.8347     5.5004    10.8136 </r>
       <r>    -0.7731     3.6463    11.0383 </r>
       <r>    -0.7115     3.2130    11.2362 </r>
       <r>    -0.6499     2.6722    11.4008 </r>
       <r>    -0.5883     0.4699    11.4298 </r>
       <r>    -0.5267     3.5482    11.6484 </r>
       <r>    -0.4651     2.3318    11.7921 </r>
       <r>    -0.4035     2.9165    11.9719 </r>
       <r>    -0.3419     2.8310    12.1463 </r>
       <r>    -0.2803     2.5679    12.3045 </r>
       <r>    -0.2187     3.2144    12.5026 </r>
       <r>    -0.1571     0.9639    12.5621 </r>
       <r>    -0.0955     2.3217    12.7051 </r>
       <r>    -0.0339     3.1873    12.9015 </r>
       <r>     0.0277     1.5621    12.9978 </r>
       <r>     0.0893     1.5363    13.0924 </r>
       <r>     0.1509     0.6349    13.1315 </r>
       <r>     0.2125     0.6628    13.1724 </r>
       <r>     0.2741     2.7114    13.3394 </r>
       <r>     0.3357     2.2999    13.4811 </r>
       <r>     0.3973     1.2660    13.5591 </r>
       <r>     0.4589     1.0133    13.6215 </r>
       <r>     0.5205     1.3479    13.7045 </r>
       <r>     0.5821     0.4468    13.7321 </r>
       <r>     0.6437     3.1513    13.9262 </r>
       <r>     0.7053     0.5347    13.9591 </r>
       <r>     0.7669     0.4368    13.9860 </r>
       <r>     0.8285     0.8120    14.0361 </r>
       <r>     0.8901     2.7183    14.2035 </r>
       <r>     0.9517     0.8985    14.2588 </r>
       <r>     1.0133     1.7597    14.3672 </r>
       <r>     1.0749     0.3064    14.3861 </r>
       <r>     1.1365     0.7427    14.4319 </r>
       <r>     1.1981     0.8783    14.4860 </r>
       <r>     1.2597     1.3313    14.5680 </r>
       <r>     1.3213     1.4786    14.6591 </r>
       <r>     1.3829     0.3381    14.6799 </r>
       <r>     1.4445     1.7929    14.7904 </r>
       <r>     1.5062     2.8133    14.9637 </r>
       <r>     1.5678     2.2431    15.1019 </r>
       <r>     1.6294     4.0147    15.3492 </r>
       <r>     1.6910     5.0290    15.6590 </r>
       <r>     1.7526     5.3231    15.9869 </r>
       <r>     1.8142     4.2190    16.2468 </r>
       <r>     1.8758     4.8949    16.5483 </r>
       <r>     1.9374     6.6214    16.9563 </r>
       <r>     1.9990     3.0437    17.1438 </r>
       <r>     2.0606     2.2522    17.2825 </r>
       <r>     2.1222     3.7364    17.5127 </r>
       <r>     2.1838     5.5625    17.8554 </r>
       <r>     2.2454     3.5640    18.0750 </r>
       <r>     2.3070     6.1576    18.4543 </r>
       <r>     2.3686     2.4531    18.6054 </r>
       <r>     2.4302     3.1217    18.7978 </r>
       <r>     2.4918     5.2259    19.1198 </r>
       <r>     2.5534     3.8852    19.3591 </r>
       <r>     2.6150     5.2732    19.6841 </r>
       <r>     2.6766     4.8439    19.9826 </r>
       <r>     2.7382     4.6477    20.2689 </r>
       <r>     2.7998     5.1289    20.5848 </r>
       <r>     2.8614     5.7090    20.9366 </r>
       <r>     2.9230     6.9887    21.3671 </r>
       <r>     2.9846     4.3576    21.6357 </r>
       <r>     3.0462     4.8378    21.9337 </r>
       <r>     3.1078     7.0484    22.3679 </r>
       <r>     3.1694     4.8532    22.6669 </r>
       <r>     3.2310     6.7832    23.0848 </r>
       <r>     3.2926     5.8251    23.4436 </r>
       <r>     3.3542     6.2056    23.8259 </r>
       <r>     3.4158     4.8823    24.1267 </r>
       <r>     3.4774     7.6873    24.6003 </r>
       <r>     3.5390     5.3484    24.9297 </r>
       <r>     3.6006     4.6345    25.2153 </r>
       <r>     3.6622     3.8905    25.4549 </r>
       <r>     3.7238     4.2440    25.7164 </r>
       <r>     3.7854     6.5132    26.1177 </r>
       <r>     3.8470     6.4041    26.5123 </r>
       <r>     3.9086     4.0627    26.7626 </r>
       <r>     3.9702     8.2023    27.2679 </r>
       <r>     4.0318     4.2945    27.5327 </r>
       <r>     4.0934     3.4518    27.7454 </r>
       <r>     4.1550     4.9219    28.0486 </r>
       <r>     4.2166     5.0066    28.3570 </r>
       <r>     4.2782     4.4265    28.6299 </r>
       <r>     4.3398     4.5999    28.9133 </r>
       <r>     4.4014     4.5457    29.1933 </r>
       <r>     4.4630     3.7544    29.4247 </r>
       <r>     4.5246     6.1848    29.8057 </r>
       <r>     4.5862     4.3347    30.0728 </r>
       <r>     4.6478     3.5535    30.2918 </r>
       <r>     4.7094     3.8291    30.5278 </r>
       <r>     4.7710     2.2674    30.6675 </r>
       <r>     4.8326     0.8965    30.7227 </r>
       <r>     4.8942     2.7025    30.8892 </r>
       <r>     4.9558     1.6494    30.9908 </r>
       <r>     5.0174     4.7005    31.2804 </r>
       <r>     5.0790     2.1845    31.4150 </r>
       <r>     5.1406     1.1390    31.4852 </r>
       <r>     5.2022     1.1826    31.5580 </r>
       <r>     5.2638     0.9022    31.6137 </r>
       <r>     5.3254     1.0684    31.6795 </r>
       <r>     5.3870     0.7123    31.7234 </r>
       <r>     5.4486     0.8797    31.7776 </r>
       <r>     5.5102     1.6156    31.8771 </r>
       <r>     5.5718     0.8666    31.9305 </r>
       <r>     5.6334     0.6117    31.9682 </r>
       <r>     5.6950     0.0006    31.9682 </r>
       <r>     5.7566     0.4446    31.9956 </r>
       <r>     5.8182     0.0713    32.0000 </r>
       <r>     5.8798     0.0000    32.0000 </r>
       <r>     5.9414     0.0000    32.0000 </r>
       <r>     6.0030     0.0000    32.0000 </r>
       <r>     6.0646     0.0000    32.0000 </r>
       <r>     6.1262     0.0000    32.0000 </r>
       <r>     6.1878     0.0000    32.0000 </r>
       <r>     6.2494     0.0000    32.0000 </r>
       <r>     6.3110     0.0000    32.0000 </r>
       <r>     6.3726     0.1619    32.0100 </r>
       <r>     6.4342     0.7219    32.0544 </r>
       <r>     6.4958     0.4433    32.0818 </r>
       <r>     6.5574     0.2132    32.0949 </r>
       <r>     6.6190     1.2357    32.1710 </r>
       <r>     6.6806     1.7693    32.2800 </r>
       <r>     6.7422     1.7565    32.3882 </r>
       <r>     6.8038     1.1970    32.4620 </r>
       <r>     6.8654     0.3590    32.4841 </r>
       <r>     6.9270     2.4969    32.6380 </r>
       <r>     6.9886     1.4970    32.7302 </r>
       <r>     7.0502     2.1085    32.8601 </r>
       <r>     7.1118     2.4836    33.0132 </r>
       <r>     7.1734     2.7674    33.1839 </r>
       <r>     7.2350     2.1787    33.3181 </r>
       <r>     7.2966     2.3734    33.4644 </r>
       <r>     7.3582     3.4801    33.6789 </r>
       <r>     7.4198     2.3397    33.8231 </r>
       <r>     7.4814     3.5072    34.0391 </r>
       <r>     7.5430     4.1567    34.2952 </r>
       <r>     7.6046     3.3119    34.4993 </r>
       <r>     7.6662     3.5873    34.7202 </r>
       <r>     7.7278     6.0222    35.0912 </r>
       <r>     7.7894     5.4703    35.4282 </r>
       <r>     7.8510     4.8532    35.7272 </r>
       <r>     7.9126     6.9405    36.1547 </r>
       <r>     7.9743     2.7545    36.3244 </r>
       <r>     8.0359     6.3756    36.7173 </r>
       <r>     8.0975     8.0276    37.2118 </r>
       <r>     8.1591     6.5031    37.6125 </r>
       <r>     8.2207     5.0950    37.9264 </r>
       <r>     8.2823     4.6763    38.2145 </r>
       <r>     8.3439     5.6985    38.5656 </r>
       <r>     8.4055     6.5784    38.9710 </r>
       <r>     8.4671     5.1556    39.2886 </r>
       <r>     8.5287     4.3114    39.5542 </r>
       <r>     8.5903     3.3449    39.7603 </r>
       <r>     8.6519     5.6163    40.1063 </r>
       <r>     8.7135     4.3684    40.3755 </r>
       <r>     8.7751     3.6414    40.6000 </r>
       <r>     8.8367     4.6452    40.8863 </r>
       <r>     8.8983     4.3688    41.1555 </r>
       <r>     8.9599     6.1095    41.5318 </r>
       <r>     9.0215     5.4097    41.8651 </r>
       <r>     9.0831    13.0825    42.6710 </r>
       <r>     9.1447     4.6985    42.9607 </r>
       <r>     9.2063     8.2321    43.4678 </r>
       <r>     9.2679     9.6875    44.0647 </r>
       <r>     9.3295     4.0783    44.3162 </r>
       <r>     9.3911     6.9623    44.7451 </r>
       <r>     9.4527     7.0675    45.1806 </r>
       <r>     9.5143     6.9603    45.6094 </r>
       <r>     9.5759     6.3265    45.9991 </r>
       <r>     9.6375     3.3302    46.2043 </r>
       <r>     9.6991     3.7260    46.4338 </r>
       <r>     9.7607     3.7169    46.6628 </r>
       <r>     9.8223     1.5253    46.7567 </r>
       <r>     9.8839     2.4780    46.9094 </r>
       <r>     9.9455     2.4329    47.0593 </r>
       <r>    10.0071     1.1181    47.1282 </r>
       <r>    10.0687     3.3185    47.3326 </r>
       <r>    10.1303     1.0940    47.4000 </r>
       <r>    10.1919     3.7363    47.6302 </r>
       <r>    10.2535     1.1924    47.7039 </r>
       <r>    10.3151     0.8173    47.7542 </r>
       <r>    10.3767     0.2998    47.7727 </r>
       <r>    10.4383     1.2630    47.8505 </r>
       <r>    10.4999     1.6323    47.9511 </r>
       <r>    10.5615     0.2038    47.9636 </r>
       <r>    10.6231     0.0005    47.9637 </r>
       <r>    10.6847     0.5899    48.0000 </r>
       <r>    10.7463     0.0000    48.0000 </r>
       <r>    10.8079     0.0000    48.0000 </r>
       <r>    10.8695     0.0000    48.0000 </r>
       <r>    10.9311     0.0000    48.0000 </r>
       <r>    10.9927     0.0000    48.0000 </r>
       <r>    11.0543     0.0000    48.0000 </r>
       <r>    11.1159     0.0000    48.0000 </r>
       <r>    11.1775     0.0000    48.0000 </r>
       <r>    11.2391     0.0000    48.0000 </r>
       <r>    11.3007     0.0000    48.0000 </r>
       <r>    11.3623     0.0000    48.0000 </r>
       <r>    11.4239     0.0000    48.0000 </r>
       <r>    11.4855     0.0000    48.0000 </r>
      </set>
     </set>
    </array>
   </total>
  </dos>
 </calculation>
 <structure name="finalpos" >
  <crystal>
   <varray name="basis" >
    <v>      -0.00000000      -0.00000000       5.44370237 </v>
    <v>       5.44370237      -5.44370237       0.00000000 </v>
    <v>       2.72185119       2.72185119       0.00000000 </v>
   </varray>
   <i name="volume">    161.31810740 </i>
   <varray name="rec_basis" >
    <v>      -0.00000000       0.00000000       0.18369851 </v>
    <v>       0.09184925      -0.09184925      -0.00000000 </v>
    <v>       0.18369851       0.18369851       0.00000000 </v>
   </varray>
  </crystal>
  <varray name="positions" >
   <v>       0.00000000       0.00000000       0.00000000 </v>
   <v>       0.50000000       0.75000000       0.50000000 </v>
   <v>       0.00000000       0.50000000       0.00000000 </v>
   <v>       0.50000000       0.25000000       0.50000000 </v>
   <v>       0.25000000       0.00000000       0.50000000 </v>
   <v>       0.75000000       0.75000000       0.00000000 </v>
   <v>       0.25000000       0.50000000       0.50000000 </v>
   <v>       0.75000000       0.25000000       0.00000000 </v>
  </varray>
 </structure>
</modeling>
