<?xml version="1.0" encoding="ISO-8859-1"?>
<modeling>
 <generator>
  <i name="program" type="string">vasp </i>
  <i name="version" type="string">6.4.3  </i>
  <i name="subversion" type="string">19Mar24 (build Jun 20 2024 15:56:09) complex                          parallel </i>
  <i name="platform" type="string">LinuxNV_CrayMPICH </i>
  <i name="date" type="string">2025 02 12 </i>
  <i name="time" type="string">10:51:44 </i>
 </generator>
 <incar>
  <i type="string" name="PREC">Accurate</i>
  <i type="int" name="IBRION">    -1</i>
  <i name="EDIFF">      0.00000010</i>
  <i type="int" name="NSW">     0</i>
  <i name="ENCUT">    900.00000000</i>
  <i type="logical" name="LREAL"> F  </i>
  <i type="int" name="ISMEAR">     0</i>
  <i name="SIGMA">      0.01000000</i>
  <i type="logical" name="LWAVE"> F  </i>
  <i type="logical" name="LCHARG"> F  </i>
  <i type="int" name="IVDW">    12</i>
 </incar>
 <primitive_cell>
  <structure name="primitive_cell" >
   <crystal>
    <varray name="basis" >
     <v>       5.86288214       3.38493658       0.00000000 </v>
     <v>      -0.97714702       1.69246829       0.00000000 </v>
     <v>       0.00000000       0.00000000       9.56312345 </v>
    </varray>
    <i name="volume">    126.52321019 </i>
    <varray name="rec_basis" >
     <v>       0.12792343       0.07385663      -0.00000000 </v>
     <v>      -0.25584686       0.44313976       0.00000000 </v>
     <v>       0.00000000      -0.00000000       0.10456835 </v>
    </varray>
   </crystal>
   <varray name="positions" >
    <v>       0.08417518       0.50084184       0.08417518 </v>
    <v>       0.33333333       0.00000000       0.08333333 </v>
    <v>       0.58333333       0.50000000       0.08333333 </v>
    <v>       0.83333333       0.00000000       0.08333333 </v>
    <v>       0.08333333       0.50000000       0.41666667 </v>
    <v>       0.33333333       0.00000000       0.41666667 </v>
    <v>       0.58333333       0.50000000       0.41666667 </v>
    <v>       0.83333333       0.00000000       0.41666667 </v>
    <v>       0.08333333       0.50000000       0.75000000 </v>
    <v>       0.33333333       0.00000000       0.75000000 </v>
    <v>       0.58333333       0.50000000       0.75000000 </v>
    <v>       0.83333333       0.00000000       0.75000000 </v>
    <v>       0.16666667       0.00000000       0.25000000 </v>
    <v>       0.41666667       0.50000000       0.25000000 </v>
    <v>       0.66666667       0.00000000       0.25000000 </v>
    <v>       0.91666667       0.50000000       0.25000000 </v>
    <v>       0.16666667       0.00000000       0.58333333 </v>
    <v>       0.41666667       0.50000000       0.58333333 </v>
    <v>       0.66666667       0.00000000       0.58333333 </v>
    <v>       0.91666667       0.50000000       0.58333333 </v>
    <v>       0.16666667       0.00000000       0.91666667 </v>
    <v>       0.41666667       0.50000000       0.91666667 </v>
    <v>       0.66666667       0.00000000       0.91666667 </v>
    <v>       0.91666667       0.50000000       0.91666667 </v>
   </varray>
  </structure>
  <varray name="primitive_index" >
   <v type="int" >        1 </v>
   <v type="int" >        2 </v>
   <v type="int" >        3 </v>
   <v type="int" >        4 </v>
   <v type="int" >        5 </v>
   <v type="int" >        6 </v>
   <v type="int" >        7 </v>
   <v type="int" >        8 </v>
   <v type="int" >        9 </v>
   <v type="int" >       10 </v>
   <v type="int" >       11 </v>
   <v type="int" >       12 </v>
   <v type="int" >       13 </v>
   <v type="int" >       14 </v>
   <v type="int" >       15 </v>
   <v type="int" >       16 </v>
   <v type="int" >       17 </v>
   <v type="int" >       18 </v>
   <v type="int" >       19 </v>
   <v type="int" >       20 </v>
   <v type="int" >       21 </v>
   <v type="int" >       22 </v>
   <v type="int" >       23 </v>
   <v type="int" >       24 </v>
  </varray>
 </primitive_cell>
 <kpoints>
  <generation param="Gamma">
   <v type="int" name="divisions">       6       21        4 </v>
   <v name="usershift">      0.00000000       0.00000000       0.00000000 </v>
   <v name="genvec1">      0.16666667       0.00000000       0.00000000 </v>
   <v name="genvec2">     -0.00000000       0.04761905       0.00000000 </v>
   <v name="genvec3">      0.00000000       0.00000000       0.25000000 </v>
   <v name="shift">      0.00000000       0.00000000       0.00000000 </v>
  </generation>
  <varray name="kpointlist" >
   <v>       0.00000000       0.00000000       0.00000000 </v>
   <v>       0.16666667       0.00000000       0.00000000 </v>
   <v>       0.33333333       0.00000000       0.00000000 </v>
   <v>       0.50000000       0.00000000       0.00000000 </v>
   <v>       0.00000000       0.04761905       0.00000000 </v>
   <v>       0.16666667       0.04761905       0.00000000 </v>
   <v>      -0.16666667       0.04761905       0.00000000 </v>
   <v>       0.33333333       0.04761905       0.00000000 </v>
   <v>      -0.33333333       0.04761905       0.00000000 </v>
   <v>       0.50000000       0.04761905       0.00000000 </v>
   <v>       0.00000000       0.09523810       0.00000000 </v>
   <v>       0.16666667       0.09523810       0.00000000 </v>
   <v>      -0.16666667       0.09523810       0.00000000 </v>
   <v>       0.33333333       0.09523810       0.00000000 </v>
   <v>      -0.33333333       0.09523810       0.00000000 </v>
   <v>       0.50000000       0.09523810       0.00000000 </v>
   <v>       0.00000000       0.14285714       0.00000000 </v>
   <v>       0.16666667       0.14285714       0.00000000 </v>
   <v>      -0.16666667       0.14285714       0.00000000 </v>
   <v>       0.33333333       0.14285714       0.00000000 </v>
   <v>      -0.33333333       0.14285714       0.00000000 </v>
   <v>       0.50000000       0.14285714       0.00000000 </v>
   <v>       0.00000000       0.19047619       0.00000000 </v>
   <v>       0.16666667       0.19047619       0.00000000 </v>
   <v>      -0.16666667       0.19047619       0.00000000 </v>
   <v>       0.33333333       0.19047619       0.00000000 </v>
   <v>      -0.33333333       0.19047619       0.00000000 </v>
   <v>       0.50000000       0.19047619       0.00000000 </v>
   <v>       0.00000000       0.23809524       0.00000000 </v>
   <v>       0.16666667       0.23809524       0.00000000 </v>
   <v>      -0.16666667       0.23809524       0.00000000 </v>
   <v>       0.33333333       0.23809524       0.00000000 </v>
   <v>      -0.33333333       0.23809524       0.00000000 </v>
   <v>       0.50000000       0.23809524       0.00000000 </v>
   <v>       0.00000000       0.28571429       0.00000000 </v>
   <v>       0.16666667       0.28571429       0.00000000 </v>
   <v>      -0.16666667       0.28571429       0.00000000 </v>
   <v>       0.33333333       0.28571429       0.00000000 </v>
   <v>      -0.33333333       0.28571429       0.00000000 </v>
   <v>       0.50000000       0.28571429       0.00000000 </v>
   <v>       0.00000000       0.33333333       0.00000000 </v>
   <v>       0.16666667       0.33333333       0.00000000 </v>
   <v>      -0.16666667       0.33333333       0.00000000 </v>
   <v>       0.33333333       0.33333333       0.00000000 </v>
   <v>      -0.33333333       0.33333333       0.00000000 </v>
   <v>       0.50000000       0.33333333       0.00000000 </v>
   <v>       0.00000000       0.38095238       0.00000000 </v>
   <v>       0.16666667       0.38095238       0.00000000 </v>
   <v>      -0.16666667       0.38095238       0.00000000 </v>
   <v>       0.33333333       0.38095238       0.00000000 </v>
   <v>      -0.33333333       0.38095238       0.00000000 </v>
   <v>       0.50000000       0.38095238       0.00000000 </v>
   <v>       0.00000000       0.42857143       0.00000000 </v>
   <v>       0.16666667       0.42857143       0.00000000 </v>
   <v>      -0.16666667       0.42857143       0.00000000 </v>
   <v>       0.33333333       0.42857143       0.00000000 </v>
   <v>      -0.33333333       0.42857143       0.00000000 </v>
   <v>       0.50000000       0.42857143       0.00000000 </v>
   <v>       0.00000000       0.47619048       0.00000000 </v>
   <v>       0.16666667       0.47619048       0.00000000 </v>
   <v>      -0.16666667       0.47619048       0.00000000 </v>
   <v>       0.33333333       0.47619048       0.00000000 </v>
   <v>      -0.33333333       0.47619048       0.00000000 </v>
   <v>       0.50000000       0.47619048       0.00000000 </v>
   <v>       0.00000000       0.00000000       0.25000000 </v>
   <v>       0.16666667       0.00000000       0.25000000 </v>
   <v>       0.16666667       0.00000000      -0.25000000 </v>
   <v>       0.33333333       0.00000000       0.25000000 </v>
   <v>       0.33333333       0.00000000      -0.25000000 </v>
   <v>       0.50000000       0.00000000       0.25000000 </v>
   <v>       0.00000000       0.04761905       0.25000000 </v>
   <v>       0.00000000       0.04761905      -0.25000000 </v>
   <v>       0.16666667       0.04761905       0.25000000 </v>
   <v>      -0.16666667       0.04761905      -0.25000000 </v>
   <v>       0.16666667      -0.04761905      -0.25000000 </v>
   <v>      -0.16666667      -0.04761905       0.25000000 </v>
   <v>       0.33333333       0.04761905       0.25000000 </v>
   <v>      -0.33333333       0.04761905      -0.25000000 </v>
   <v>       0.33333333      -0.04761905      -0.25000000 </v>
   <v>      -0.33333333      -0.04761905       0.25000000 </v>
   <v>       0.50000000       0.04761905       0.25000000 </v>
   <v>       0.50000000       0.04761905      -0.25000000 </v>
   <v>       0.00000000       0.09523810       0.25000000 </v>
   <v>       0.00000000       0.09523810      -0.25000000 </v>
   <v>       0.16666667       0.09523810       0.25000000 </v>
   <v>      -0.16666667       0.09523810      -0.25000000 </v>
   <v>       0.16666667      -0.09523810      -0.25000000 </v>
   <v>      -0.16666667      -0.09523810       0.25000000 </v>
   <v>       0.33333333       0.09523810       0.25000000 </v>
   <v>      -0.33333333       0.09523810      -0.25000000 </v>
   <v>       0.33333333      -0.09523810      -0.25000000 </v>
   <v>      -0.33333333      -0.09523810       0.25000000 </v>
   <v>       0.50000000       0.09523810       0.25000000 </v>
   <v>       0.50000000       0.09523810      -0.25000000 </v>
   <v>       0.00000000       0.14285714       0.25000000 </v>
   <v>       0.00000000       0.14285714      -0.25000000 </v>
   <v>       0.16666667       0.14285714       0.25000000 </v>
   <v>      -0.16666667       0.14285714      -0.25000000 </v>
   <v>       0.16666667      -0.14285714      -0.25000000 </v>
   <v>      -0.16666667      -0.14285714       0.25000000 </v>
   <v>       0.33333333       0.14285714       0.25000000 </v>
   <v>      -0.33333333       0.14285714      -0.25000000 </v>
   <v>       0.33333333      -0.14285714      -0.25000000 </v>
   <v>      -0.33333333      -0.14285714       0.25000000 </v>
   <v>       0.50000000       0.14285714       0.25000000 </v>
   <v>       0.50000000       0.14285714      -0.25000000 </v>
   <v>       0.00000000       0.19047619       0.25000000 </v>
   <v>       0.00000000       0.19047619      -0.25000000 </v>
   <v>       0.16666667       0.19047619       0.25000000 </v>
   <v>      -0.16666667       0.19047619      -0.25000000 </v>
   <v>       0.16666667      -0.19047619      -0.25000000 </v>
   <v>      -0.16666667      -0.19047619       0.25000000 </v>
   <v>       0.33333333       0.19047619       0.25000000 </v>
   <v>      -0.33333333       0.19047619      -0.25000000 </v>
   <v>       0.33333333      -0.19047619      -0.25000000 </v>
   <v>      -0.33333333      -0.19047619       0.25000000 </v>
   <v>       0.50000000       0.19047619       0.25000000 </v>
   <v>       0.50000000       0.19047619      -0.25000000 </v>
   <v>       0.00000000       0.23809524       0.25000000 </v>
   <v>       0.00000000       0.23809524      -0.25000000 </v>
   <v>       0.16666667       0.23809524       0.25000000 </v>
   <v>      -0.16666667       0.23809524      -0.25000000 </v>
   <v>       0.16666667      -0.23809524      -0.25000000 </v>
   <v>      -0.16666667      -0.23809524       0.25000000 </v>
   <v>       0.33333333       0.23809524       0.25000000 </v>
   <v>      -0.33333333       0.23809524      -0.25000000 </v>
   <v>       0.33333333      -0.23809524      -0.25000000 </v>
   <v>      -0.33333333      -0.23809524       0.25000000 </v>
   <v>       0.50000000       0.23809524       0.25000000 </v>
   <v>       0.50000000       0.23809524      -0.25000000 </v>
   <v>       0.00000000       0.28571429       0.25000000 </v>
   <v>       0.00000000       0.28571429      -0.25000000 </v>
   <v>       0.16666667       0.28571429       0.25000000 </v>
   <v>      -0.16666667       0.28571429      -0.25000000 </v>
   <v>       0.16666667      -0.28571429      -0.25000000 </v>
   <v>      -0.16666667      -0.28571429       0.25000000 </v>
   <v>       0.33333333       0.28571429       0.25000000 </v>
   <v>      -0.33333333       0.28571429      -0.25000000 </v>
   <v>       0.33333333      -0.28571429      -0.25000000 </v>
   <v>      -0.33333333      -0.28571429       0.25000000 </v>
   <v>       0.50000000       0.28571429       0.25000000 </v>
   <v>       0.50000000       0.28571429      -0.25000000 </v>
   <v>       0.00000000       0.33333333       0.25000000 </v>
   <v>       0.00000000       0.33333333      -0.25000000 </v>
   <v>       0.16666667       0.33333333       0.25000000 </v>
   <v>      -0.16666667       0.33333333      -0.25000000 </v>
   <v>       0.16666667      -0.33333333      -0.25000000 </v>
   <v>      -0.16666667      -0.33333333       0.25000000 </v>
   <v>       0.33333333       0.33333333       0.25000000 </v>
   <v>      -0.33333333       0.33333333      -0.25000000 </v>
   <v>       0.33333333      -0.33333333      -0.25000000 </v>
   <v>      -0.33333333      -0.33333333       0.25000000 </v>
   <v>       0.50000000       0.33333333       0.25000000 </v>
   <v>       0.50000000       0.33333333      -0.25000000 </v>
   <v>       0.00000000       0.38095238       0.25000000 </v>
   <v>       0.00000000       0.38095238      -0.25000000 </v>
   <v>       0.16666667       0.38095238       0.25000000 </v>
   <v>      -0.16666667       0.38095238      -0.25000000 </v>
   <v>       0.16666667      -0.38095238      -0.25000000 </v>
   <v>      -0.16666667      -0.38095238       0.25000000 </v>
   <v>       0.33333333       0.38095238       0.25000000 </v>
   <v>      -0.33333333       0.38095238      -0.25000000 </v>
   <v>       0.33333333      -0.38095238      -0.25000000 </v>
   <v>      -0.33333333      -0.38095238       0.25000000 </v>
   <v>       0.50000000       0.38095238       0.25000000 </v>
   <v>       0.50000000       0.38095238      -0.25000000 </v>
   <v>       0.00000000       0.42857143       0.25000000 </v>
   <v>       0.00000000       0.42857143      -0.25000000 </v>
   <v>       0.16666667       0.42857143       0.25000000 </v>
   <v>      -0.16666667       0.42857143      -0.25000000 </v>
   <v>       0.16666667      -0.42857143      -0.25000000 </v>
   <v>      -0.16666667      -0.42857143       0.25000000 </v>
   <v>       0.33333333       0.42857143       0.25000000 </v>
   <v>      -0.33333333       0.42857143      -0.25000000 </v>
   <v>       0.33333333      -0.42857143      -0.25000000 </v>
   <v>      -0.33333333      -0.42857143       0.25000000 </v>
   <v>       0.50000000       0.42857143       0.25000000 </v>
   <v>       0.50000000       0.42857143      -0.25000000 </v>
   <v>       0.00000000       0.47619048       0.25000000 </v>
   <v>       0.00000000       0.47619048      -0.25000000 </v>
   <v>       0.16666667       0.47619048       0.25000000 </v>
   <v>      -0.16666667       0.47619048      -0.25000000 </v>
   <v>       0.16666667      -0.47619048      -0.25000000 </v>
   <v>      -0.16666667      -0.47619048       0.25000000 </v>
   <v>       0.33333333       0.47619048       0.25000000 </v>
   <v>      -0.33333333       0.47619048      -0.25000000 </v>
   <v>       0.33333333      -0.47619048      -0.25000000 </v>
   <v>      -0.33333333      -0.47619048       0.25000000 </v>
   <v>       0.50000000       0.47619048       0.25000000 </v>
   <v>       0.50000000       0.47619048      -0.25000000 </v>
   <v>       0.00000000       0.00000000       0.50000000 </v>
   <v>       0.16666667       0.00000000       0.50000000 </v>
   <v>       0.33333333       0.00000000       0.50000000 </v>
   <v>       0.50000000       0.00000000       0.50000000 </v>
   <v>       0.00000000       0.04761905       0.50000000 </v>
   <v>       0.16666667       0.04761905       0.50000000 </v>
   <v>      -0.16666667       0.04761905       0.50000000 </v>
   <v>       0.33333333       0.04761905       0.50000000 </v>
   <v>      -0.33333333       0.04761905       0.50000000 </v>
   <v>       0.50000000       0.04761905       0.50000000 </v>
   <v>       0.00000000       0.09523810       0.50000000 </v>
   <v>       0.16666667       0.09523810       0.50000000 </v>
   <v>      -0.16666667       0.09523810       0.50000000 </v>
   <v>       0.33333333       0.09523810       0.50000000 </v>
   <v>      -0.33333333       0.09523810       0.50000000 </v>
   <v>       0.50000000       0.09523810       0.50000000 </v>
   <v>       0.00000000       0.14285714       0.50000000 </v>
   <v>       0.16666667       0.14285714       0.50000000 </v>
   <v>      -0.16666667       0.14285714       0.50000000 </v>
   <v>       0.33333333       0.14285714       0.50000000 </v>
   <v>      -0.33333333       0.14285714       0.50000000 </v>
   <v>       0.50000000       0.14285714       0.50000000 </v>
   <v>       0.00000000       0.19047619       0.50000000 </v>
   <v>       0.16666667       0.19047619       0.50000000 </v>
   <v>      -0.16666667       0.19047619       0.50000000 </v>
   <v>       0.33333333       0.19047619       0.50000000 </v>
   <v>      -0.33333333       0.19047619       0.50000000 </v>
   <v>       0.50000000       0.19047619       0.50000000 </v>
   <v>       0.00000000       0.23809524       0.50000000 </v>
   <v>       0.16666667       0.23809524       0.50000000 </v>
   <v>      -0.16666667       0.23809524       0.50000000 </v>
   <v>       0.33333333       0.23809524       0.50000000 </v>
   <v>      -0.33333333       0.23809524       0.50000000 </v>
   <v>       0.50000000       0.23809524       0.50000000 </v>
   <v>       0.00000000       0.28571429       0.50000000 </v>
   <v>       0.16666667       0.28571429       0.50000000 </v>
   <v>      -0.16666667       0.28571429       0.50000000 </v>
   <v>       0.33333333       0.28571429       0.50000000 </v>
   <v>      -0.33333333       0.28571429       0.50000000 </v>
   <v>       0.50000000       0.28571429       0.50000000 </v>
   <v>       0.00000000       0.33333333       0.50000000 </v>
   <v>       0.16666667       0.33333333       0.50000000 </v>
   <v>      -0.16666667       0.33333333       0.50000000 </v>
   <v>       0.33333333       0.33333333       0.50000000 </v>
   <v>      -0.33333333       0.33333333       0.50000000 </v>
   <v>       0.50000000       0.33333333       0.50000000 </v>
   <v>       0.00000000       0.38095238       0.50000000 </v>
   <v>       0.16666667       0.38095238       0.50000000 </v>
   <v>      -0.16666667       0.38095238       0.50000000 </v>
   <v>       0.33333333       0.38095238       0.50000000 </v>
   <v>      -0.33333333       0.38095238       0.50000000 </v>
   <v>       0.50000000       0.38095238       0.50000000 </v>
   <v>       0.00000000       0.42857143       0.50000000 </v>
   <v>       0.16666667       0.42857143       0.50000000 </v>
   <v>      -0.16666667       0.42857143       0.50000000 </v>
   <v>       0.33333333       0.42857143       0.50000000 </v>
   <v>      -0.33333333       0.42857143       0.50000000 </v>
   <v>       0.50000000       0.42857143       0.50000000 </v>
   <v>       0.00000000       0.47619048       0.50000000 </v>
   <v>       0.16666667       0.47619048       0.50000000 </v>
   <v>      -0.16666667       0.47619048       0.50000000 </v>
   <v>       0.33333333       0.47619048       0.50000000 </v>
   <v>      -0.33333333       0.47619048       0.50000000 </v>
   <v>       0.50000000       0.47619048       0.50000000 </v>
  </varray>
  <varray name="weights" >
   <v>       0.00198413 </v>
   <v>       0.00396825 </v>
   <v>       0.00396825 </v>
   <v>       0.00198413 </v>
   <v>       0.00396825 </v>
   <v>       0.00396825 </v>
   <v>       0.00396825 </v>
   <v>       0.00396825 </v>
   <v>       0.00396825 </v>
   <v>       0.00396825 </v>
   <v>       0.00396825 </v>
   <v>       0.00396825 </v>
   <v>       0.00396825 </v>
   <v>       0.00396825 </v>
   <v>       0.00396825 </v>
   <v>       0.00396825 </v>
   <v>       0.00396825 </v>
   <v>       0.00396825 </v>
   <v>       0.00396825 </v>
   <v>       0.00396825 </v>
   <v>       0.00396825 </v>
   <v>       0.00396825 </v>
   <v>       0.00396825 </v>
   <v>       0.00396825 </v>
   <v>       0.00396825 </v>
   <v>       0.00396825 </v>
   <v>       0.00396825 </v>
   <v>       0.00396825 </v>
   <v>       0.00396825 </v>
   <v>       0.00396825 </v>
   <v>       0.00396825 </v>
   <v>       0.00396825 </v>
   <v>       0.00396825 </v>
   <v>       0.00396825 </v>
   <v>       0.00396825 </v>
   <v>       0.00396825 </v>
   <v>       0.00396825 </v>
   <v>       0.00396825 </v>
   <v>       0.00396825 </v>
   <v>       0.00396825 </v>
   <v>       0.00396825 </v>
   <v>       0.00396825 </v>
   <v>       0.00396825 </v>
   <v>       0.00396825 </v>
   <v>       0.00396825 </v>
   <v>       0.00396825 </v>
   <v>       0.00396825 </v>
   <v>       0.00396825 </v>
   <v>       0.00396825 </v>
   <v>       0.00396825 </v>
   <v>       0.00396825 </v>
   <v>       0.00396825 </v>
   <v>       0.00396825 </v>
   <v>       0.00396825 </v>
   <v>       0.00396825 </v>
   <v>       0.00396825 </v>
   <v>       0.00396825 </v>
   <v>       0.00396825 </v>
   <v>       0.00396825 </v>
   <v>       0.00396825 </v>
   <v>       0.00396825 </v>
   <v>       0.00396825 </v>
   <v>       0.00396825 </v>
   <v>       0.00396825 </v>
   <v>       0.00396825 </v>
   <v>       0.00396825 </v>
   <v>       0.00396825 </v>
   <v>       0.00396825 </v>
   <v>       0.00396825 </v>
   <v>       0.00396825 </v>
   <v>       0.00396825 </v>
   <v>       0.00396825 </v>
   <v>       0.00396825 </v>
   <v>       0.00396825 </v>
   <v>       0.00396825 </v>
   <v>       0.00396825 </v>
   <v>       0.00396825 </v>
   <v>       0.00396825 </v>
   <v>       0.00396825 </v>
   <v>       0.00396825 </v>
   <v>       0.00396825 </v>
   <v>       0.00396825 </v>
   <v>       0.00396825 </v>
   <v>       0.00396825 </v>
   <v>       0.00396825 </v>
   <v>       0.00396825 </v>
   <v>       0.00396825 </v>
   <v>       0.00396825 </v>
   <v>       0.00396825 </v>
   <v>       0.00396825 </v>
   <v>       0.00396825 </v>
   <v>       0.00396825 </v>
   <v>       0.00396825 </v>
   <v>       0.00396825 </v>
   <v>       0.00396825 </v>
   <v>       0.00396825 </v>
   <v>       0.00396825 </v>
   <v>       0.00396825 </v>
   <v>       0.00396825 </v>
   <v>       0.00396825 </v>
   <v>       0.00396825 </v>
   <v>       0.00396825 </v>
   <v>       0.00396825 </v>
   <v>       0.00396825 </v>
   <v>       0.00396825 </v>
   <v>       0.00396825 </v>
   <v>       0.00396825 </v>
   <v>       0.00396825 </v>
   <v>       0.00396825 </v>
   <v>       0.00396825 </v>
   <v>       0.00396825 </v>
   <v>       0.00396825 </v>
   <v>       0.00396825 </v>
   <v>       0.00396825 </v>
   <v>       0.00396825 </v>
   <v>       0.00396825 </v>
   <v>       0.00396825 </v>
   <v>       0.00396825 </v>
   <v>       0.00396825 </v>
   <v>       0.00396825 </v>
   <v>       0.00396825 </v>
   <v>       0.00396825 </v>
   <v>       0.00396825 </v>
   <v>       0.00396825 </v>
   <v>       0.00396825 </v>
   <v>       0.00396825 </v>
   <v>       0.00396825 </v>
   <v>       0.00396825 </v>
   <v>       0.00396825 </v>
   <v>       0.00396825 </v>
   <v>       0.00396825 </v>
   <v>       0.00396825 </v>
   <v>       0.00396825 </v>
   <v>       0.00396825 </v>
   <v>       0.00396825 </v>
   <v>       0.00396825 </v>
   <v>       0.00396825 </v>
   <v>       0.00396825 </v>
   <v>       0.00396825 </v>
   <v>       0.00396825 </v>
   <v>       0.00396825 </v>
   <v>       0.00396825 </v>
   <v>       0.00396825 </v>
   <v>       0.00396825 </v>
   <v>       0.00396825 </v>
   <v>       0.00396825 </v>
   <v>       0.00396825 </v>
   <v>       0.00396825 </v>
   <v>       0.00396825 </v>
   <v>       0.00396825 </v>
   <v>       0.00396825 </v>
   <v>       0.00396825 </v>
   <v>       0.00396825 </v>
   <v>       0.00396825 </v>
   <v>       0.00396825 </v>
   <v>       0.00396825 </v>
   <v>       0.00396825 </v>
   <v>       0.00396825 </v>
   <v>       0.00396825 </v>
   <v>       0.00396825 </v>
   <v>       0.00396825 </v>
   <v>       0.00396825 </v>
   <v>       0.00396825 </v>
   <v>       0.00396825 </v>
   <v>       0.00396825 </v>
   <v>       0.00396825 </v>
   <v>       0.00396825 </v>
   <v>       0.00396825 </v>
   <v>       0.00396825 </v>
   <v>       0.00396825 </v>
   <v>       0.00396825 </v>
   <v>       0.00396825 </v>
   <v>       0.00396825 </v>
   <v>       0.00396825 </v>
   <v>       0.00396825 </v>
   <v>       0.00396825 </v>
   <v>       0.00396825 </v>
   <v>       0.00396825 </v>
   <v>       0.00396825 </v>
   <v>       0.00396825 </v>
   <v>       0.00396825 </v>
   <v>       0.00396825 </v>
   <v>       0.00396825 </v>
   <v>       0.00396825 </v>
   <v>       0.00396825 </v>
   <v>       0.00396825 </v>
   <v>       0.00396825 </v>
   <v>       0.00396825 </v>
   <v>       0.00396825 </v>
   <v>       0.00396825 </v>
   <v>       0.00198413 </v>
   <v>       0.00396825 </v>
   <v>       0.00396825 </v>
   <v>       0.00198413 </v>
   <v>       0.00396825 </v>
   <v>       0.00396825 </v>
   <v>       0.00396825 </v>
   <v>       0.00396825 </v>
   <v>       0.00396825 </v>
   <v>       0.00396825 </v>
   <v>       0.00396825 </v>
   <v>       0.00396825 </v>
   <v>       0.00396825 </v>
   <v>       0.00396825 </v>
   <v>       0.00396825 </v>
   <v>       0.00396825 </v>
   <v>       0.00396825 </v>
   <v>       0.00396825 </v>
   <v>       0.00396825 </v>
   <v>       0.00396825 </v>
   <v>       0.00396825 </v>
   <v>       0.00396825 </v>
   <v>       0.00396825 </v>
   <v>       0.00396825 </v>
   <v>       0.00396825 </v>
   <v>       0.00396825 </v>
   <v>       0.00396825 </v>
   <v>       0.00396825 </v>
   <v>       0.00396825 </v>
   <v>       0.00396825 </v>
   <v>       0.00396825 </v>
   <v>       0.00396825 </v>
   <v>       0.00396825 </v>
   <v>       0.00396825 </v>
   <v>       0.00396825 </v>
   <v>       0.00396825 </v>
   <v>       0.00396825 </v>
   <v>       0.00396825 </v>
   <v>       0.00396825 </v>
   <v>       0.00396825 </v>
   <v>       0.00396825 </v>
   <v>       0.00396825 </v>
   <v>       0.00396825 </v>
   <v>       0.00396825 </v>
   <v>       0.00396825 </v>
   <v>       0.00396825 </v>
   <v>       0.00396825 </v>
   <v>       0.00396825 </v>
   <v>       0.00396825 </v>
   <v>       0.00396825 </v>
   <v>       0.00396825 </v>
   <v>       0.00396825 </v>
   <v>       0.00396825 </v>
   <v>       0.00396825 </v>
   <v>       0.00396825 </v>
   <v>       0.00396825 </v>
   <v>       0.00396825 </v>
   <v>       0.00396825 </v>
   <v>       0.00396825 </v>
   <v>       0.00396825 </v>
   <v>       0.00396825 </v>
   <v>       0.00396825 </v>
   <v>       0.00396825 </v>
   <v>       0.00396825 </v>
  </varray>
 </kpoints>
 <parameters>
  <separator name="general" >
   <i type="string" name="SYSTEM">unknown system</i>
   <i type="logical" name="LCOMPAT"> F  </i>
  </separator>
  <separator name="electronic" >
   <i type="string" name="PREC">accura</i>
   <i name="ENMAX">    900.00000000</i>
   <i name="ENAUG">   1514.19200000</i>
   <i name="EDIFF">      0.00000010</i>
   <i type="int" name="IALGO">    38</i>
   <i type="int" name="IWAVPR">    10</i>
   <i type="int" name="NBANDS">    40</i>
   <i type="int" name="NBANDSLOW">    -1</i>
   <i type="int" name="NBANDSHIGH">    -1</i>
   <i name="NELECT">     48.00000000</i>
   <i type="int" name="TURBO">     0</i>
   <i type="int" name="IRESTART">     0</i>
   <i type="int" name="NREBOOT">     0</i>
   <i type="int" name="NMIN">     0</i>
   <i name="EREF">      0.00000000</i>
   <separator name="electronic smearing" >
    <i type="int" name="ISMEAR">     0</i>
    <i name="SIGMA">      0.01000000</i>
    <i name="KSPACING">      0.50000000</i>
    <i type="logical" name="KGAMMA"> T  </i>
    <i type="logical" name="KBLOWUP"> T  </i>
   </separator>
   <separator name="electronic projectors" >
    <i type="logical" name="LREAL"> F  </i>
    <v name="ROPT">      0.00000000</v>
    <i type="int" name="LMAXPAW">  -100</i>
    <i type="int" name="LMAXMIX">     2</i>
    <i type="logical" name="NLSPLINE"> F  </i>
   </separator>
   <separator name="electronic startup" >
    <i type="int" name="ISTART">     0</i>
    <i type="int" name="ICHARG">     2</i>
    <i type="int" name="INIWAV">     1</i>
   </separator>
   <separator name="electronic spin" >
    <i type="int" name="ISPIN">     1</i>
    <i type="logical" name="LNONCOLLINEAR"> F  </i>
    <v name="MAGMOM">      1.00000000      1.00000000      1.00000000      1.00000000      1.00000000      1.00000000      1.00000000      1.00000000      1.00000000      1.00000000      1.00000000      1.00000000      1.00000000      1.00000000      1.00000000      1.00000000      1.00000000      1.00000000      1.00000000      1.00000000
      1.00000000      1.00000000      1.00000000      1.00000000</v>
    <i name="NUPDOWN">     -1.00000000</i>
    <i type="logical" name="LSORBIT"> F  </i>
    <v name="SAXIS">      0.00000000      0.00000000      1.00000000</v>
    <i type="logical" name="LSPIRAL"> F  </i>
    <v name="QSPIRAL">      0.00000000      0.00000000      0.00000000</v>
    <i type="logical" name="LZEROZ"> F  </i>
   </separator>
   <separator name="electronic exchange-correlation" >
    <i type="logical" name="LASPH"> F  </i>
   </separator>
   <separator name="electronic convergence" >
    <i type="int" name="NELM">    60</i>
    <i type="int" name="NELMDL">    -5</i>
    <i type="int" name="NELMIN">     2</i>
    <i name="ENINI">    900.00000000</i>
    <separator name="electronic convergence detail" >
     <i type="logical" name="LDIAG"> T  </i>
     <i type="logical" name="LSUBROT"> F  </i>
     <i name="WEIMIN">      0.00000000</i>
     <i name="EBREAK">      0.00000000</i>
     <i name="DEPER">      0.30000000</i>
     <i type="int" name="NRMM">     4</i>
     <i name="TIME">      0.40000000</i>
    </separator>
   </separator>
   <separator name="electronic mixer" >
    <i name="AMIX">      0.40000000</i>
    <i name="BMIX">      1.00000000</i>
    <i name="AMIN">      0.10000000</i>
    <i name="AMIX_MAG">      1.60000000</i>
    <i name="BMIX_MAG">      1.00000000</i>
    <separator name="electronic mixer details" >
     <i type="int" name="IMIX">     4</i>
     <i type="logical" name="MIXFIRST"> F  </i>
     <i type="int" name="MAXMIX">   -45</i>
     <i name="WC">    100.00000000</i>
     <i type="int" name="INIMIX">     1</i>
     <i type="int" name="MIXPRE">     1</i>
     <i type="int" name="MREMOVE">     5</i>
    </separator>
   </separator>
   <separator name="electronic dipolcorrection" >
    <i type="logical" name="LDIPOL"> F  </i>
    <i type="logical" name="LMONO"> F  </i>
    <i type="int" name="IDIPOL">     0</i>
    <i name="EPSILON">      1.00000000</i>
    <v name="DIPOL">   -100.00000000   -100.00000000   -100.00000000</v>
    <i name="EFIELD">      0.00000000</i>
    <i type="logical" name="LVACPOTAV"> F  </i>
   </separator>
  </separator>
  <separator name="grids" >
   <i type="int" name="NGX">    70</i>
   <i type="int" name="NGY">    20</i>
   <i type="int" name="NGZ">    96</i>
   <i type="int" name="NGXF">   140</i>
   <i type="int" name="NGYF">    40</i>
   <i type="int" name="NGZF">   192</i>
   <i type="logical" name="ADDGRID"> F  </i>
  </separator>
  <separator name="ionic" >
   <i type="int" name="NSW">     0</i>
   <i type="int" name="IBRION">    -1</i>
   <i type="int" name="MDALGO">     0</i>
   <i type="int" name="ISIF">     2</i>
   <i name="PSTRESS">      0.00000000</i>
   <i name="EDIFFG">      0.00000100</i>
   <i type="int" name="NFREE">     0</i>
   <i name="POTIM">      0.50000000</i>
   <i name="SMASS">     -3.00000000</i>
   <i name="SCALEE">      1.00000000</i>
  </separator>
  <separator name="ionic md" >
   <i name="TEBEG">      0.00010000</i>
   <i name="TEEND">      0.00010000</i>
   <i type="int" name="NBLOCK">     1</i>
   <i type="int" name="KBLOCK">     1</i>
   <i type="int" name="NPACO">   256</i>
   <i name="APACO">     10.00000000</i>
  </separator>
  <separator name="symmetry" >
   <i type="int" name="ISYM">     2</i>
   <i name="SYMPREC">      0.00001000</i>
  </separator>
  <separator name="dos" >
   <i type="int" name="LORBIT">     0</i>
   <v name="RWIGS">     -1.00000000</v>
   <i type="int" name="NEDOS">   301</i>
   <i name="EMIN">     10.00000000</i>
   <i name="EMAX">    -10.00000000</i>
   <i name="EFERMI">      0.00000000</i>
  </separator>
  <separator name="writing" >
   <i type="int" name="NWRITE">     2</i>
   <i type="logical" name="LWAVE"> F  </i>
   <i type="logical" name="LDOWNSAMPLE"> F  </i>
   <i type="logical" name="LCHARG"> F  </i>
   <i type="logical" name="LPARD"> F  </i>
   <i type="logical" name="LVTOT"> F  </i>
   <i type="logical" name="LVHAR"> F  </i>
   <i type="logical" name="LELF"> F  </i>
   <i type="logical" name="LOPTICS"> F  </i>
   <v name="STM">      0.00000000      0.00000000      0.00000000      0.00000000      0.00000000      0.00000000      0.00000000</v>
  </separator>
  <separator name="performance" >
   <i type="int" name="NPAR">     4</i>
   <i type="int" name="NSIM">     4</i>
   <i type="int" name="NBLK">    -1</i>
   <i type="logical" name="LPLANE"> T  </i>
   <i type="logical" name="LSCALAPACK"> T  </i>
   <i type="logical" name="LSCAAWARE"> F  </i>
   <i type="logical" name="LSCALU"> F  </i>
   <i type="logical" name="LASYNC"> F  </i>
   <i type="logical" name="LORBITALREAL"> F  </i>
  </separator>
  <separator name="miscellaneous" >
   <i type="int" name="IDIOT">     3</i>
   <i type="int" name="PHON_NSTRUCT">    -1</i>
   <i type="logical" name="LMUSIC"> F  </i>
   <v name="POMASS">      4.00000000</v>
   <v name="DARWINR">      0.00000000</v>
   <v name="DARWINV">      1.00000000</v>
   <i type="logical" name="LCORR"> T  </i>
  </separator>
  <i type="logical" name="GGA_COMPAT"> T  </i>
  <i type="logical" name="LBERRY"> F  </i>
  <i type="int" name="ICORELEVEL">     0</i>
  <i type="logical" name="LDAU"> F  </i>
  <i type="int" name="I_CONSTRAINED_M">     0</i>
  <separator name="electronic exchange-correlation" >
   <i type="string" name="GGA    ">PE</i>
   <i type="string" name="XC_C">1</i>
   <i type="int" name="VOSKOWN">     0</i>
   <i type="logical" name="LHFCALC"> F  </i>
   <i type="string" name="PRECFOCK"></i>
   <i type="logical" name="LSYMGRAD"> F  </i>
   <i type="logical" name="LHFONE"> F  </i>
   <i type="logical" name="LRHFCALC"> F  </i>
   <i type="logical" name="LTHOMAS"> F  </i>
   <i type="logical" name="LMODELHF"> F  </i>
   <i type="logical" name="LFOCKACE"> F  </i>
   <i name="ENCUT4O">     -1.00000000</i>
   <i type="int" name="EXXOEP">     0</i>
   <i type="int" name="FOURORBIT">     0</i>
   <i name="AEXX">      0.00000000</i>
   <i name="HFALPHA">      0.00000000</i>
   <i name="MCALPHA">      0.00000000</i>
   <i name="ALDAX">      1.00000000</i>
   <i name="AGGAX">      1.00000000</i>
   <i name="AMGGAX">      1.00000000</i>
   <i name="ALDAC">      1.00000000</i>
   <i name="AGGAC">      1.00000000</i>
   <i name="AMGGAC">      1.00000000</i>
   <i type="int" name="NKREDX">     1</i>
   <i type="int" name="NKREDY">     1</i>
   <i type="int" name="NKREDZ">     1</i>
   <i type="logical" name="SHIFTRED"> F  </i>
   <i type="logical" name="ODDONLY"> F  </i>
   <i type="logical" name="EVENONLY"> F  </i>
   <i type="int" name="LMAXFOCK">     0</i>
   <i type="int" name="NMAXFOCKAE">     0</i>
   <i type="logical" name="LFOCKAEDFT"> F  </i>
   <i name="HFSCREEN">      0.00000000</i>
   <i name="HFSCREENC">      0.00000000</i>
   <i type="int" name="NBANDSGWLOW">     0</i>
  </separator>
  <separator name="vdW DFT" >
   <i type="logical" name="LUSE_VDW"> F  </i>
   <i type="int" name="IVDW_NL">    -1</i>
   <i type="logical" name="LSPIN_VDW"> F  </i>
   <i name="ZAB_VDW">     -0.84910000</i>
   <i name="GAMMA_VDW">      1.39626340</i>
   <i name="ALPHA_VDW">      0.00000000</i>
   <i name="PARAM1">      0.12340000</i>
   <i name="PARAM2">      1.00000000</i>
   <i name="BPARAM">      6.30000000</i>
   <i name="CPARAM">      0.00930000</i>
  </separator>
  <separator name="model GW" >
   <i type="int" name="MODEL_GW">     0</i>
   <i name="MODEL_EPS0">      3.16308025</i>
   <i name="MODEL_ALPHA">      1.00000000</i>
  </separator>
  <separator name="linear response parameters" >
   <i type="logical" name="LEPSILON"> F  </i>
   <i type="logical" name="LRPA"> F  </i>
   <i type="logical" name="LNABLA"> F  </i>
   <i type="logical" name="LVEL"> F  </i>
   <i name="CSHIFT">      0.10000000</i>
   <i name="OMEGAMAX">     -1.00000000</i>
   <i name="DEG_THRESHOLD">      0.00200000</i>
   <i name="RTIME">     -0.10000000</i>
   <i name="WPLASMAI">      0.00000000</i>
   <v name="DFIELD">      0.00000000      0.00000000      0.00000000</v>
   <v name="WPLASMA">      0.00000000      0.00000000      0.00000000      0.00000000      0.00000000      0.00000000      0.00000000      0.00000000      0.00000000</v>
  </separator>
  <separator name="orbital magnetization" >
   <i type="logical" name="NUCIND"> F  </i>
   <v name="MAGPOS">      0.00000000      0.00000000      0.00000000</v>
   <i type="logical" name="LNICSALL"> T  </i>
   <i type="logical" name="ORBITALMAG"> F  </i>
   <i type="logical" name="LMAGBLOCH"> F  </i>
   <i type="logical" name="LCHIMAG"> F  </i>
   <i type="logical" name="LGAUGE"> T  </i>
   <i type="int" name="MAGATOM">     0</i>
   <v name="MAGDIPOL">      0.00000000      0.00000000      0.00000000</v>
   <v name="AVECCONST">      0.00000000      0.00000000      0.00000000</v>
  </separator>
  <separator name="response functions" >
   <i type="logical" name="LALL_IN_ONE"> F  </i>
   <i type="int" name="IALL_IN_ONE">    -1</i>
   <i type="int" name="NBANDS_WAVE">    -1</i>
   <i type="logical" name="LFINITE_TEMPERATURE"> F  </i>
   <i type="logical" name="LADDER"> F  </i>
   <i type="logical" name="LRPAFORCE"> F  </i>
   <i type="logical" name="LFXC"> F  </i>
   <i type="logical" name="LHARTREE"> T  </i>
   <i type="int" name="IBSE">     0</i>
   <v type="int" name="KPOINT">    -1     0     0     0</v>
   <i type="logical" name="LTCTC"> F  </i>
   <i type="logical" name="LTCTE"> F  </i>
   <i type="logical" name="LTETE"> F  </i>
   <i type="logical" name="LTRIPLET"> F  </i>
   <i type="logical" name="LFXCEPS"> F  </i>
   <i type="logical" name="LFXHEG"> F  </i>
   <i type="int" name="NATURALO">     2</i>
   <i type="logical" name="LHOLEGF"> F  </i>
   <i type="logical" name="L2ORDER"> F  </i>
   <i type="logical" name="LDMP1"> F  </i>
   <i type="logical" name="LMP2LT"> F  </i>
   <i type="logical" name="LSMP2LT"> F  </i>
   <i type="logical" name="LGWLF"> F  </i>
   <i name="ENCUTGW">     -1.60000002</i>
   <i name="ENCUTGWSOFT">     -1.60000002</i>
   <i name="ENCUTLF">     -1.00000000</i>
   <i type="logical" name="ESF_SPLINES"> F  </i>
   <i name="ESF_CONV">      0.01000000</i>
   <i type="int" name="ESF_NINTER">    15</i>
   <i type="int" name="LMAXMP2">    -1</i>
   <i name="SCISSOR">      0.00000000</i>
   <i type="int" name="NOMEGA">     0</i>
   <i type="int" name="NOMEGAR">     0</i>
   <i type="int" name="NBANDSGW">    -1</i>
   <i type="int" name="NBANDSO">    -1</i>
   <i type="int" name="NBANDSV">    -1</i>
   <i type="int" name="NELMGW">     1</i>
   <i type="int" name="NELMHF">     1</i>
   <i type="int" name="DIM">     3</i>
   <i type="int" name="IESPILON">     4</i>
   <i type="int" name="ANTIRES">     0</i>
   <i name="OMEGAMAX">    -30.00000000</i>
   <i name="OMEGAMIN">    -30.00000000</i>
   <i name="OMEGATL">   -200.00000000</i>
   <i type="int" name="OMEGAGRID">     0</i>
   <i name="CSHIFT">     -0.10000000</i>
   <i type="logical" name="LSELFENERGY"> F  </i>
   <i type="logical" name="LSPECTRAL"> F  </i>
   <i type="logical" name="LSPECTRALGW"> F  </i>
   <i type="logical" name="LSINGLES"> F  </i>
   <i type="logical" name="LFERMIGW"> F  </i>
   <i type="logical" name="ODDONLYGW"> F  </i>
   <i type="logical" name="EVENONLYGW"> F  </i>
   <i type="int" name="NKREDLFX">     1</i>
   <i type="int" name="NKREDLFY">     1</i>
   <i type="int" name="NKREDLFZ">     1</i>
   <i type="int" name="MAXMEM">  2800</i>
   <i type="int" name="TELESCOPE">     0</i>
   <i type="int" name="NTAUPAR">    -1</i>
   <i type="int" name="NOMEGAPAR">    -1</i>
   <i name="DAMP_NEWTON">      0.80000001</i>
   <i name="LAMBDA">      1.00000000</i>
  </separator>
  <separator name="External order field" >
   <i name="OFIELD_KAPPA">      0.00000000</i>
   <v name="OFIELD_K">      0.00000000      0.00000000      0.00000000</v>
   <i name="OFIELD_Q6_NEAR">      0.00000000</i>
   <i name="OFIELD_Q6_FAR">      0.00000000</i>
   <i name="OFIELD_A">      0.00000000</i>
  </separator>
  <separator name="optional k-points parameters" >
   <i type="int" name="KPOINTS_OPT_MODE">     1</i>
   <i type="logical" name="LKPOINTS_OPT"> F  </i>
  </separator>
 </parameters>
 <atominfo>
  <atoms>      24 </atoms>
  <types>       1 </types>
  <array name="atoms" >
   <dimension dim="1">ion</dimension>
   <field type="string">element</field>
   <field type="int">atomtype</field>
   <set>
    <rc><c>He</c><c>   1</c></rc>
    <rc><c>He</c><c>   1</c></rc>
    <rc><c>He</c><c>   1</c></rc>
    <rc><c>He</c><c>   1</c></rc>
    <rc><c>He</c><c>   1</c></rc>
    <rc><c>He</c><c>   1</c></rc>
    <rc><c>He</c><c>   1</c></rc>
    <rc><c>He</c><c>   1</c></rc>
    <rc><c>He</c><c>   1</c></rc>
    <rc><c>He</c><c>   1</c></rc>
    <rc><c>He</c><c>   1</c></rc>
    <rc><c>He</c><c>   1</c></rc>
    <rc><c>He</c><c>   1</c></rc>
    <rc><c>He</c><c>   1</c></rc>
    <rc><c>He</c><c>   1</c></rc>
    <rc><c>He</c><c>   1</c></rc>
    <rc><c>He</c><c>   1</c></rc>
    <rc><c>He</c><c>   1</c></rc>
    <rc><c>He</c><c>   1</c></rc>
    <rc><c>He</c><c>   1</c></rc>
    <rc><c>He</c><c>   1</c></rc>
    <rc><c>He</c><c>   1</c></rc>
    <rc><c>He</c><c>   1</c></rc>
    <rc><c>He</c><c>   1</c></rc>
   </set>
  </array>
  <array name="atomtypes" >
   <dimension dim="1">type</dimension>
   <field type="int">atomspertype</field>
   <field type="string">element</field>
   <field>mass</field>
   <field>valence</field>
   <field type="string">pseudopotential</field>
   <set>
    <rc><c>  24</c><c>He</c><c>      4.00000000</c><c>      2.00000000</c><c>  PAW_PBE He_GW 23Feb2015               </c></rc>
   </set>
  </array>
 </atominfo>
 <structure name="initialpos" >
  <crystal>
   <varray name="basis" >
    <v>       5.86288214       3.38493658       0.00000000 </v>
    <v>      -0.97714702       1.69246829       0.00000000 </v>
    <v>       0.00000000       0.00000000       9.56312345 </v>
   </varray>
   <i name="volume">    126.52321019 </i>
   <varray name="rec_basis" >
    <v>       0.12792343       0.07385663      -0.00000000 </v>
    <v>      -0.25584686       0.44313976       0.00000000 </v>
    <v>       0.00000000      -0.00000000       0.10456835 </v>
   </varray>
  </crystal>
  <varray name="positions" >
   <v>       0.08417518       0.50084184       0.08417518 </v>
   <v>       0.33333333       0.00000000       0.08333333 </v>
   <v>       0.58333333       0.50000000       0.08333333 </v>
   <v>       0.83333333       0.00000000       0.08333333 </v>
   <v>       0.08333333       0.50000000       0.41666667 </v>
   <v>       0.33333333       0.00000000       0.41666667 </v>
   <v>       0.58333333       0.50000000       0.41666667 </v>
   <v>       0.83333333       0.00000000       0.41666667 </v>
   <v>       0.08333333       0.50000000       0.75000000 </v>
   <v>       0.33333333       0.00000000       0.75000000 </v>
   <v>       0.58333333       0.50000000       0.75000000 </v>
   <v>       0.83333333       0.00000000       0.75000000 </v>
   <v>       0.16666667       0.00000000       0.25000000 </v>
   <v>       0.41666667       0.50000000       0.25000000 </v>
   <v>       0.66666667       0.00000000       0.25000000 </v>
   <v>       0.91666667       0.50000000       0.25000000 </v>
   <v>       0.16666667       0.00000000       0.58333333 </v>
   <v>       0.41666667       0.50000000       0.58333333 </v>
   <v>       0.66666667       0.00000000       0.58333333 </v>
   <v>       0.91666667       0.50000000       0.58333333 </v>
   <v>       0.16666667       0.00000000       0.91666667 </v>
   <v>       0.41666667       0.50000000       0.91666667 </v>
   <v>       0.66666667       0.00000000       0.91666667 </v>
   <v>       0.91666667       0.50000000       0.91666667 </v>
  </varray>
 </structure>
 <calculation>
  <scstep>
   <time name="dav">    2.44    2.44</time>
   <time name="total">    2.47    2.47</time>
   <energy>
    <i name="alphaZ">     46.16035745 </i>
    <i name="ewald">  -1147.00500406 </i>
    <i name="hartreedc">   -325.55736662 </i>
    <i name="XCdc">    188.77275676 </i>
    <i name="pawpsdc">   1096.62050802 </i>
    <i name="pawaedc">  -1132.77759231 </i>
    <i name="eentropy">     -0.00000000 </i>
    <i name="bandstr">   -322.20281195 </i>
    <i name="atom">   1889.38125292 </i>
    <i name="e_fr_energy">    293.39210020 </i>
    <i name="e_wo_entrp">    293.39210020 </i>
    <i name="e_0_energy">    293.39210020 </i>
   </energy>
  </scstep>
  <scstep>
   <time name="dav">    2.61    2.61</time>
   <time name="total">    2.61    2.61</time>
   <energy>
    <i name="e_fr_energy">     25.27095029 </i>
    <i name="e_wo_entrp">     25.27095029 </i>
    <i name="e_0_energy">     25.27095029 </i>
   </energy>
  </scstep>
  <scstep>
   <time name="dav">    2.87    2.87</time>
   <time name="total">    2.87    2.87</time>
   <energy>
    <i name="e_fr_energy">      8.36983921 </i>
    <i name="e_wo_entrp">      8.36983921 </i>
    <i name="e_0_energy">      8.36983921 </i>
   </energy>
  </scstep>
  <scstep>
   <time name="dav">    2.91    2.92</time>
   <time name="total">    2.91    2.92</time>
   <energy>
    <i name="e_fr_energy">      7.81306540 </i>
    <i name="e_wo_entrp">      7.81306540 </i>
    <i name="e_0_energy">      7.81306540 </i>
   </energy>
  </scstep>
  <scstep>
   <time name="dav">    2.79    2.81</time>
   <time name="total">    2.87    2.88</time>
   <energy>
    <i name="e_fr_energy">      7.79478838 </i>
    <i name="e_wo_entrp">      7.79478838 </i>
    <i name="e_0_energy">      7.79478838 </i>
   </energy>
  </scstep>
  <scstep>
   <time name="dav">    3.01    3.01</time>
   <time name="total">    3.12    3.12</time>
   <energy>
    <i name="e_fr_energy">      7.85455806 </i>
    <i name="e_wo_entrp">      7.85455806 </i>
    <i name="e_0_energy">      7.85455806 </i>
   </energy>
  </scstep>
  <scstep>
   <time name="dav">    2.86    2.86</time>
   <time name="total">    2.96    2.96</time>
   <energy>
    <i name="e_fr_energy">      7.86907236 </i>
    <i name="e_wo_entrp">      7.86907236 </i>
    <i name="e_0_energy">      7.86907236 </i>
   </energy>
  </scstep>
  <scstep>
   <time name="dav">    2.80    2.81</time>
   <time name="total">    2.90    2.91</time>
   <energy>
    <i name="e_fr_energy">      7.86818064 </i>
    <i name="e_wo_entrp">      7.86818064 </i>
    <i name="e_0_energy">      7.86818064 </i>
   </energy>
  </scstep>
  <scstep>
   <time name="dav">    2.64    2.64</time>
   <time name="total">    2.74    2.75</time>
   <energy>
    <i name="e_fr_energy">      7.86771771 </i>
    <i name="e_wo_entrp">      7.86771771 </i>
    <i name="e_0_energy">      7.86771771 </i>
   </energy>
  </scstep>
  <scstep>
   <time name="dav">    3.00    3.00</time>
   <time name="total">    3.10    3.10</time>
   <energy>
    <i name="e_fr_energy">      7.86771744 </i>
    <i name="e_wo_entrp">      7.86771744 </i>
    <i name="e_0_energy">      7.86771744 </i>
   </energy>
  </scstep>
  <scstep>
   <time name="dav">    2.65    2.65</time>
   <time name="total">    2.75    2.76</time>
   <energy>
    <i name="e_fr_energy">      7.86771711 </i>
    <i name="e_wo_entrp">      7.86771711 </i>
    <i name="e_0_energy">      7.86771711 </i>
   </energy>
  </scstep>
  <scstep>
   <time name="dav">    2.33    2.33</time>
   <time name="total">    2.43    2.43</time>
   <energy>
    <i name="e_fr_energy">      7.86771744 </i>
    <i name="e_wo_entrp">      7.86771744 </i>
    <i name="e_0_energy">      7.86771744 </i>
   </energy>
  </scstep>
  <scstep>
   <time name="dav">    2.00    2.00</time>
   <time name="total">    2.03    2.03</time>
   <energy>
    <i name="alphaZ">     46.16035745 </i>
    <i name="ewald">  -1147.00500406 </i>
    <i name="hartreedc">   -338.64269108 </i>
    <i name="XCdc">    190.97730850 </i>
    <i name="pawpsdc">   1147.02773180 </i>
    <i name="pawaedc">  -1184.55519298 </i>
    <i name="eentropy">     -0.00000000 </i>
    <i name="bandstr">   -595.47604515 </i>
    <i name="atom">   1889.38125292 </i>
    <i name="e_fr_energy">      7.86771739 </i>
    <i name="e_wo_entrp">      7.86771739 </i>
    <i name="e_0_energy">      7.86771739 </i>
   </energy>
  </scstep>
  <structure>
   <crystal>
    <varray name="basis" >
     <v>       5.86288214       3.38493658       0.00000000 </v>
     <v>      -0.97714702       1.69246829       0.00000000 </v>
     <v>       0.00000000       0.00000000       9.56312345 </v>
    </varray>
    <i name="volume">    126.52321019 </i>
    <varray name="rec_basis" >
     <v>       0.12792343       0.07385663      -0.00000000 </v>
     <v>      -0.25584686       0.44313976       0.00000000 </v>
     <v>       0.00000000      -0.00000000       0.10456835 </v>
    </varray>
   </crystal>
   <varray name="positions" >
    <v>       0.08417518       0.50084184       0.08417518 </v>
    <v>       0.33333333       0.00000000       0.08333333 </v>
    <v>       0.58333333       0.50000000       0.08333333 </v>
    <v>       0.83333333       0.00000000       0.08333333 </v>
    <v>       0.08333333       0.50000000       0.41666667 </v>
    <v>       0.33333333       0.00000000       0.41666667 </v>
    <v>       0.58333333       0.50000000       0.41666667 </v>
    <v>       0.83333333       0.00000000       0.41666667 </v>
    <v>       0.08333333       0.50000000       0.75000000 </v>
    <v>       0.33333333       0.00000000       0.75000000 </v>
    <v>       0.58333333       0.50000000       0.75000000 </v>
    <v>       0.83333333       0.00000000       0.75000000 </v>
    <v>       0.16666667       0.00000000       0.25000000 </v>
    <v>       0.41666667       0.50000000       0.25000000 </v>
    <v>       0.66666667       0.00000000       0.25000000 </v>
    <v>       0.91666667       0.50000000       0.25000000 </v>
    <v>       0.16666667       0.00000000       0.58333333 </v>
    <v>       0.41666667       0.50000000       0.58333333 </v>
    <v>       0.66666667       0.00000000       0.58333333 </v>
    <v>       0.91666667       0.50000000       0.58333333 </v>
    <v>       0.16666667       0.00000000       0.91666667 </v>
    <v>       0.41666667       0.50000000       0.91666667 </v>
    <v>       0.66666667       0.00000000       0.91666667 </v>
    <v>       0.91666667       0.50000000       0.91666667 </v>
   </varray>
  </structure>
  <varray name="forces" >
   <v>      -0.01648990      -0.01249673      -0.02918888 </v>
   <v>       0.00682774       0.00476022      -0.00115685 </v>
   <v>       0.00015865       0.00009243       0.00001215 </v>
   <v>       0.00676477       0.00467823      -0.00109346 </v>
   <v>       0.00002737       0.00001395       0.00020191 </v>
   <v>       0.00004569       0.00002580       0.00000026 </v>
   <v>       0.00004442       0.00002521      -0.00001174 </v>
   <v>       0.00004954       0.00002809       0.00000268 </v>
   <v>       0.00003989       0.00002119       0.00018772 </v>
   <v>       0.00004466       0.00002523       0.00000639 </v>
   <v>       0.00004192       0.00002376      -0.00000958 </v>
   <v>       0.00004082       0.00002299       0.00000266 </v>
   <v>       0.00318466       0.00269619       0.01333431 </v>
   <v>       0.00007132       0.00005984       0.00008055 </v>
   <v>      -0.00002420      -0.00001078      -0.00002282 </v>
   <v>      -0.00188750      -0.00124632       0.00236073 </v>
   <v>      -0.00004426      -0.00002625      -0.00000182 </v>
   <v>      -0.00004543      -0.00002686      -0.00000806 </v>
   <v>      -0.00004521      -0.00002677      -0.00001046 </v>
   <v>      -0.00004473      -0.00002639      -0.00000160 </v>
   <v>      -0.00358090      -0.00127235       0.00752658 </v>
   <v>      -0.00005686      -0.00001489      -0.00002402 </v>
   <v>       0.00010267       0.00006238       0.00008173 </v>
   <v>       0.00477486       0.00261183       0.00773161 </v>
  </varray>
  <varray name="stress" >
   <v>     276.93928557      -0.01502943       0.00021700 </v>
   <v>      -0.01502945     276.99186395       0.00088590 </v>
   <v>       0.00021698       0.00088591     276.55735470 </v>
  </varray>
  <energy>
   <i name="e_fr_energy">      7.27442883 </i>
   <i name="e_wo_entrp">      7.27442883 </i>
   <i name="e_0_energy">      7.27442883 </i>
  </energy>
  <time name="totalsc">   40.64   40.71</time>
  <eigenvalues>
   <array>
    <dimension dim="1">band</dimension>
    <dimension dim="2">kpoint</dimension>
    <dimension dim="3">spin</dimension>
    <field>eigene</field>
    <field>occ</field>
    <set>
     <set comment="spin 1">
      <set comment="kpoint 1">
       <r>  -17.9202    1.0000 </r>
       <r>  -16.8061    1.0000 </r>
       <r>  -16.8005    1.0000 </r>
       <r>  -15.7691    1.0000 </r>
       <r>  -15.7642    1.0000 </r>
       <r>  -14.7934    1.0000 </r>
       <r>  -14.7869    1.0000 </r>
       <r>  -14.7867    1.0000 </r>
       <r>  -14.7806    1.0000 </r>
       <r>  -14.0037    1.0000 </r>
       <r>  -13.9972    1.0000 </r>
       <r>  -12.4496    1.0000 </r>
       <r>  -12.4435    1.0000 </r>
       <r>  -12.4433    1.0000 </r>
       <r>  -12.4369    1.0000 </r>
       <r>  -12.1796    1.0000 </r>
       <r>  -12.0801    1.0000 </r>
       <r>  -11.7172    1.0000 </r>
       <r>  -11.7143    1.0000 </r>
       <r>  -10.9740    1.0000 </r>
       <r>  -10.9716    1.0000 </r>
       <r>  -10.8578    1.0000 </r>
       <r>  -10.8553    1.0000 </r>
       <r>  -10.4881    1.0000 </r>
       <r>    8.1284    0.0000 </r>
       <r>    9.2485    0.0000 </r>
       <r>    9.2519    0.0000 </r>
       <r>    9.4165    0.0000 </r>
       <r>   11.3744    0.0000 </r>
       <r>   11.3778    0.0000 </r>
       <r>   11.5341    0.0000 </r>
       <r>   11.5386    0.0000 </r>
       <r>   11.6624    0.0000 </r>
       <r>   11.6761    0.0000 </r>
       <r>   12.4306    0.0000 </r>
       <r>   12.4428    0.0000 </r>
       <r>   12.4445    0.0000 </r>
       <r>   12.4583    0.0000 </r>
       <r>   14.5614    0.0000 </r>
       <r>   14.5732    0.0000 </r>
      </set>
      <set comment="kpoint 2">
       <r>  -17.8565    1.0000 </r>
       <r>  -16.7456    1.0000 </r>
       <r>  -16.7400    1.0000 </r>
       <r>  -16.3919    1.0000 </r>
       <r>  -15.3680    1.0000 </r>
       <r>  -15.3627    1.0000 </r>
       <r>  -15.0708    1.0000 </r>
       <r>  -14.1549    1.0000 </r>
       <r>  -14.1501    1.0000 </r>
       <r>  -13.9543    1.0000 </r>
       <r>  -13.9477    1.0000 </r>
       <r>  -12.8708    1.0000 </r>
       <r>  -12.8650    1.0000 </r>
       <r>  -12.3917    1.0000 </r>
       <r>  -12.0425    1.0000 </r>
       <r>  -12.0080    1.0000 </r>
       <r>  -12.0031    1.0000 </r>
       <r>  -11.8770    1.0000 </r>
       <r>  -11.8739    1.0000 </r>
       <r>  -11.2539    1.0000 </r>
       <r>  -10.8845    1.0000 </r>
       <r>  -10.8820    1.0000 </r>
       <r>  -10.7094    1.0000 </r>
       <r>  -10.4333    1.0000 </r>
       <r>    8.2188    0.0000 </r>
       <r>    9.4275    0.0000 </r>
       <r>    9.4311    0.0000 </r>
       <r>    9.6247    0.0000 </r>
       <r>   10.3851    0.0000 </r>
       <r>   11.6529    0.0000 </r>
       <r>   11.6569    0.0000 </r>
       <r>   11.7055    0.0000 </r>
       <r>   11.7193    0.0000 </r>
       <r>   12.1866    0.0000 </r>
       <r>   12.1956    0.0000 </r>
       <r>   12.4001    0.0000 </r>
       <r>   12.4125    0.0000 </r>
       <r>   12.5462    0.0000 </r>
       <r>   13.7026    0.0000 </r>
       <r>   13.7121    0.0000 </r>
      </set>
      <set comment="kpoint 3">
       <r>  -17.6666    1.0000 </r>
       <r>  -16.9260    1.0000 </r>
       <r>  -16.5655    1.0000 </r>
       <r>  -16.5600    1.0000 </r>
       <r>  -15.8671    1.0000 </r>
       <r>  -15.8617    1.0000 </r>
       <r>  -14.3334    1.0000 </r>
       <r>  -13.8080    1.0000 </r>
       <r>  -13.8016    1.0000 </r>
       <r>  -13.4961    1.0000 </r>
       <r>  -13.4917    1.0000 </r>
       <r>  -13.2530    1.0000 </r>
       <r>  -13.2469    1.0000 </r>
       <r>  -12.9157    1.0000 </r>
       <r>  -12.2906    1.0000 </r>
       <r>  -12.2872    1.0000 </r>
       <r>  -11.9314    1.0000 </r>
       <r>  -11.5940    1.0000 </r>
       <r>  -11.5897    1.0000 </r>
       <r>  -11.5222    1.0000 </r>
       <r>  -11.0035    1.0000 </r>
       <r>  -11.0006    1.0000 </r>
       <r>  -10.4988    1.0000 </r>
       <r>  -10.3613    1.0000 </r>
       <r>    8.4898    0.0000 </r>
       <r>    9.5732    0.0000 </r>
       <r>    9.9376    0.0000 </r>
       <r>    9.9418    0.0000 </r>
       <r>   10.2326    0.0000 </r>
       <r>   11.5385    0.0000 </r>
       <r>   11.5452    0.0000 </r>
       <r>   11.8284    0.0000 </r>
       <r>   11.8417    0.0000 </r>
       <r>   11.9827    0.0000 </r>
       <r>   11.9882    0.0000 </r>
       <r>   12.2247    0.0000 </r>
       <r>   12.2379    0.0000 </r>
       <r>   12.4187    0.0000 </r>
       <r>   13.0090    0.0000 </r>
       <r>   13.0160    0.0000 </r>
      </set>
      <set comment="kpoint 4">
       <r>  -17.3557    1.0000 </r>
       <r>  -17.3527    1.0000 </r>
       <r>  -16.2735    1.0000 </r>
       <r>  -16.2675    1.0000 </r>
       <r>  -16.2674    1.0000 </r>
       <r>  -16.2614    1.0000 </r>
       <r>  -13.5985    1.0000 </r>
       <r>  -13.5931    1.0000 </r>
       <r>  -13.5733    1.0000 </r>
       <r>  -13.5677    1.0000 </r>
       <r>  -13.5676    1.0000 </r>
       <r>  -13.5604    1.0000 </r>
       <r>  -12.8595    1.0000 </r>
       <r>  -12.8537    1.0000 </r>
       <r>  -12.8533    1.0000 </r>
       <r>  -12.8488    1.0000 </r>
       <r>  -11.7550    1.0000 </r>
       <r>  -11.7530    1.0000 </r>
       <r>  -11.2480    1.0000 </r>
       <r>  -11.2446    1.0000 </r>
       <r>  -11.2443    1.0000 </r>
       <r>  -11.2396    1.0000 </r>
       <r>  -10.3766    1.0000 </r>
       <r>  -10.3751    1.0000 </r>
       <r>    8.9402    0.0000 </r>
       <r>    8.9424    0.0000 </r>
       <r>   10.6898    0.0000 </r>
       <r>   10.6967    0.0000 </r>
       <r>   10.6989    0.0000 </r>
       <r>   10.7059    0.0000 </r>
       <r>   11.1861    0.0000 </r>
       <r>   11.1952    0.0000 </r>
       <r>   12.0064    0.0000 </r>
       <r>   12.0200    0.0000 </r>
       <r>   12.0205    0.0000 </r>
       <r>   12.0341    0.0000 </r>
       <r>   12.4486    0.0000 </r>
       <r>   12.4549    0.0000 </r>
       <r>   12.4563    0.0000 </r>
       <r>   12.4697    0.0000 </r>
      </set>
      <set comment="kpoint 5">
       <r>  -17.8578    1.0000 </r>
       <r>  -16.7469    1.0000 </r>
       <r>  -16.7413    1.0000 </r>
       <r>  -15.7143    1.0000 </r>
       <r>  -15.7094    1.0000 </r>
       <r>  -14.7429    1.0000 </r>
       <r>  -14.7364    1.0000 </r>
       <r>  -14.7361    1.0000 </r>
       <r>  -14.7301    1.0000 </r>
       <r>  -13.9553    1.0000 </r>
       <r>  -13.9488    1.0000 </r>
       <r>  -12.4127    1.0000 </r>
       <r>  -12.4066    1.0000 </r>
       <r>  -12.4064    1.0000 </r>
       <r>  -12.4002    1.0000 </r>
       <r>  -12.1417    1.0000 </r>
       <r>  -12.0432    1.0000 </r>
       <r>  -11.6856    1.0000 </r>
       <r>  -11.6826    1.0000 </r>
       <r>  -10.9495    1.0000 </r>
       <r>  -10.9472    1.0000 </r>
       <r>  -10.8403    1.0000 </r>
       <r>  -10.8378    1.0000 </r>
       <r>  -10.4779    1.0000 </r>
       <r>    8.2169    0.0000 </r>
       <r>    9.3349    0.0000 </r>
       <r>    9.3383    0.0000 </r>
       <r>    9.4820    0.0000 </r>
       <r>   11.4626    0.0000 </r>
       <r>   11.4661    0.0000 </r>
       <r>   11.6163    0.0000 </r>
       <r>   11.6207    0.0000 </r>
       <r>   11.7046    0.0000 </r>
       <r>   11.7183    0.0000 </r>
       <r>   12.4562    0.0000 </r>
       <r>   12.4683    0.0000 </r>
       <r>   12.4700    0.0000 </r>
       <r>   12.4838    0.0000 </r>
       <r>   14.5106    0.0000 </r>
       <r>   14.5228    0.0000 </r>
      </set>
      <set comment="kpoint 6">
       <r>  -17.7943    1.0000 </r>
       <r>  -16.6866    1.0000 </r>
       <r>  -16.6810    1.0000 </r>
       <r>  -16.3347    1.0000 </r>
       <r>  -15.3147    1.0000 </r>
       <r>  -15.3095    1.0000 </r>
       <r>  -15.0189    1.0000 </r>
       <r>  -14.1077    1.0000 </r>
       <r>  -14.1030    1.0000 </r>
       <r>  -13.9062    1.0000 </r>
       <r>  -13.8997    1.0000 </r>
       <r>  -12.8305    1.0000 </r>
       <r>  -12.8247    1.0000 </r>
       <r>  -12.3530    1.0000 </r>
       <r>  -12.0059    1.0000 </r>
       <r>  -11.9753    1.0000 </r>
       <r>  -11.9704    1.0000 </r>
       <r>  -11.8443    1.0000 </r>
       <r>  -11.8413    1.0000 </r>
       <r>  -11.2258    1.0000 </r>
       <r>  -10.8660    1.0000 </r>
       <r>  -10.8635    1.0000 </r>
       <r>  -10.6887    1.0000 </r>
       <r>  -10.4225    1.0000 </r>
       <r>    8.3073    0.0000 </r>
       <r>    9.5116    0.0000 </r>
       <r>    9.5152    0.0000 </r>
       <r>    9.6885    0.0000 </r>
       <r>   10.4734    0.0000 </r>
       <r>   11.7284    0.0000 </r>
       <r>   11.7311    0.0000 </r>
       <r>   11.7473    0.0000 </r>
       <r>   11.7612    0.0000 </r>
       <r>   12.2240    0.0000 </r>
       <r>   12.2331    0.0000 </r>
       <r>   12.4244    0.0000 </r>
       <r>   12.4368    0.0000 </r>
       <r>   12.6342    0.0000 </r>
       <r>   13.6692    0.0000 </r>
       <r>   13.6771    0.0000 </r>
      </set>
      <set comment="kpoint 7">
       <r>  -17.7943    1.0000 </r>
       <r>  -16.6866    1.0000 </r>
       <r>  -16.6810    1.0000 </r>
       <r>  -16.3346    1.0000 </r>
       <r>  -15.3147    1.0000 </r>
       <r>  -15.3095    1.0000 </r>
       <r>  -15.0190    1.0000 </r>
       <r>  -14.1077    1.0000 </r>
       <r>  -14.1030    1.0000 </r>
       <r>  -13.9062    1.0000 </r>
       <r>  -13.8997    1.0000 </r>
       <r>  -12.8305    1.0000 </r>
       <r>  -12.8247    1.0000 </r>
       <r>  -12.3530    1.0000 </r>
       <r>  -12.0059    1.0000 </r>
       <r>  -11.9753    1.0000 </r>
       <r>  -11.9704    1.0000 </r>
       <r>  -11.8443    1.0000 </r>
       <r>  -11.8413    1.0000 </r>
       <r>  -11.2258    1.0000 </r>
       <r>  -10.8660    1.0000 </r>
       <r>  -10.8635    1.0000 </r>
       <r>  -10.6887    1.0000 </r>
       <r>  -10.4225    1.0000 </r>
       <r>    8.3073    0.0000 </r>
       <r>    9.5116    0.0000 </r>
       <r>    9.5152    0.0000 </r>
       <r>    9.6885    0.0000 </r>
       <r>   10.4734    0.0000 </r>
       <r>   11.7284    0.0000 </r>
       <r>   11.7311    0.0000 </r>
       <r>   11.7473    0.0000 </r>
       <r>   11.7612    0.0000 </r>
       <r>   12.2241    0.0000 </r>
       <r>   12.2331    0.0000 </r>
       <r>   12.4244    0.0000 </r>
       <r>   12.4368    0.0000 </r>
       <r>   12.6342    0.0000 </r>
       <r>   13.6713    0.0000 </r>
       <r>   13.7052    0.0000 </r>
      </set>
      <set comment="kpoint 8">
       <r>  -17.6050    1.0000 </r>
       <r>  -16.8668    1.0000 </r>
       <r>  -16.5072    1.0000 </r>
       <r>  -16.5017    1.0000 </r>
       <r>  -15.8116    1.0000 </r>
       <r>  -15.8062    1.0000 </r>
       <r>  -14.2850    1.0000 </r>
       <r>  -13.7609    1.0000 </r>
       <r>  -13.7545    1.0000 </r>
       <r>  -13.4528    1.0000 </r>
       <r>  -13.4484    1.0000 </r>
       <r>  -13.2098    1.0000 </r>
       <r>  -13.2037    1.0000 </r>
       <r>  -12.8746    1.0000 </r>
       <r>  -12.2553    1.0000 </r>
       <r>  -12.2518    1.0000 </r>
       <r>  -11.8959    1.0000 </r>
       <r>  -11.5655    1.0000 </r>
       <r>  -11.5613    1.0000 </r>
       <r>  -11.4910    1.0000 </r>
       <r>  -10.9826    1.0000 </r>
       <r>  -10.9797    1.0000 </r>
       <r>  -10.4818    1.0000 </r>
       <r>  -10.3492    1.0000 </r>
       <r>    8.5783    0.0000 </r>
       <r>    9.6616    0.0000 </r>
       <r>   10.0148    0.0000 </r>
       <r>   10.0190    0.0000 </r>
       <r>   10.2907    0.0000 </r>
       <r>   11.5917    0.0000 </r>
       <r>   11.5984    0.0000 </r>
       <r>   11.8669    0.0000 </r>
       <r>   11.8802    0.0000 </r>
       <r>   12.0389    0.0000 </r>
       <r>   12.0443    0.0000 </r>
       <r>   12.2534    0.0000 </r>
       <r>   12.2666    0.0000 </r>
       <r>   12.4481    0.0000 </r>
       <r>   13.0045    0.0000 </r>
       <r>   13.0115    0.0000 </r>
      </set>
      <set comment="kpoint 9">
       <r>  -17.6050    1.0000 </r>
       <r>  -16.8668    1.0000 </r>
       <r>  -16.5072    1.0000 </r>
       <r>  -16.5017    1.0000 </r>
       <r>  -15.8116    1.0000 </r>
       <r>  -15.8062    1.0000 </r>
       <r>  -14.2851    1.0000 </r>
       <r>  -13.7609    1.0000 </r>
       <r>  -13.7545    1.0000 </r>
       <r>  -13.4528    1.0000 </r>
       <r>  -13.4484    1.0000 </r>
       <r>  -13.2098    1.0000 </r>
       <r>  -13.2037    1.0000 </r>
       <r>  -12.8746    1.0000 </r>
       <r>  -12.2552    1.0000 </r>
       <r>  -12.2518    1.0000 </r>
       <r>  -11.8959    1.0000 </r>
       <r>  -11.5655    1.0000 </r>
       <r>  -11.5612    1.0000 </r>
       <r>  -11.4910    1.0000 </r>
       <r>  -10.9826    1.0000 </r>
       <r>  -10.9797    1.0000 </r>
       <r>  -10.4818    1.0000 </r>
       <r>  -10.3493    1.0000 </r>
       <r>    8.5783    0.0000 </r>
       <r>    9.6616    0.0000 </r>
       <r>   10.0148    0.0000 </r>
       <r>   10.0190    0.0000 </r>
       <r>   10.2908    0.0000 </r>
       <r>   11.5917    0.0000 </r>
       <r>   11.5984    0.0000 </r>
       <r>   11.8669    0.0000 </r>
       <r>   11.8802    0.0000 </r>
       <r>   12.0389    0.0000 </r>
       <r>   12.0443    0.0000 </r>
       <r>   12.2534    0.0000 </r>
       <r>   12.2665    0.0000 </r>
       <r>   12.4480    0.0000 </r>
       <r>   13.0045    0.0000 </r>
       <r>   13.0115    0.0000 </r>
      </set>
      <set comment="kpoint 10">
       <r>  -17.2951    1.0000 </r>
       <r>  -17.2921    1.0000 </r>
       <r>  -16.2163    1.0000 </r>
       <r>  -16.2103    1.0000 </r>
       <r>  -16.2102    1.0000 </r>
       <r>  -16.2043    1.0000 </r>
       <r>  -13.5539    1.0000 </r>
       <r>  -13.5485    1.0000 </r>
       <r>  -13.5278    1.0000 </r>
       <r>  -13.5222    1.0000 </r>
       <r>  -13.5220    1.0000 </r>
       <r>  -13.5149    1.0000 </r>
       <r>  -12.8202    1.0000 </r>
       <r>  -12.8145    1.0000 </r>
       <r>  -12.8141    1.0000 </r>
       <r>  -12.8096    1.0000 </r>
       <r>  -11.7213    1.0000 </r>
       <r>  -11.7194    1.0000 </r>
       <r>  -11.2236    1.0000 </r>
       <r>  -11.2202    1.0000 </r>
       <r>  -11.2200    1.0000 </r>
       <r>  -11.2153    1.0000 </r>
       <r>  -10.3625    1.0000 </r>
       <r>  -10.3610    1.0000 </r>
       <r>    9.0287    0.0000 </r>
       <r>    9.0309    0.0000 </r>
       <r>   10.7562    0.0000 </r>
       <r>   10.7631    0.0000 </r>
       <r>   10.7653    0.0000 </r>
       <r>   10.7723    0.0000 </r>
       <r>   11.2333    0.0000 </r>
       <r>   11.2424    0.0000 </r>
       <r>   12.0405    0.0000 </r>
       <r>   12.0541    0.0000 </r>
       <r>   12.0546    0.0000 </r>
       <r>   12.0682    0.0000 </r>
       <r>   12.4762    0.0000 </r>
       <r>   12.4824    0.0000 </r>
       <r>   12.4838    0.0000 </r>
       <r>   12.4971    0.0000 </r>
      </set>
      <set comment="kpoint 11">
       <r>  -17.6718    1.0000 </r>
       <r>  -16.5704    1.0000 </r>
       <r>  -16.5649    1.0000 </r>
       <r>  -15.5515    1.0000 </r>
       <r>  -15.5468    1.0000 </r>
       <r>  -14.5932    1.0000 </r>
       <r>  -14.5868    1.0000 </r>
       <r>  -14.5865    1.0000 </r>
       <r>  -14.5805    1.0000 </r>
       <r>  -13.8119    1.0000 </r>
       <r>  -13.8055    1.0000 </r>
       <r>  -12.3048    1.0000 </r>
       <r>  -12.2988    1.0000 </r>
       <r>  -12.2986    1.0000 </r>
       <r>  -12.2925    1.0000 </r>
       <r>  -12.0301    1.0000 </r>
       <r>  -11.9344    1.0000 </r>
       <r>  -11.5931    1.0000 </r>
       <r>  -11.5902    1.0000 </r>
       <r>  -10.8789    1.0000 </r>
       <r>  -10.8767    1.0000 </r>
       <r>  -10.7912    1.0000 </r>
       <r>  -10.7888    1.0000 </r>
       <r>  -10.4514    1.0000 </r>
       <r>    8.4824    0.0000 </r>
       <r>    9.5936    0.0000 </r>
       <r>    9.5971    0.0000 </r>
       <r>    9.6745    0.0000 </r>
       <r>   11.7271    0.0000 </r>
       <r>   11.7307    0.0000 </r>
       <r>   11.8253    0.0000 </r>
       <r>   11.8378    0.0000 </r>
       <r>   11.8615    0.0000 </r>
       <r>   11.8678    0.0000 </r>
       <r>   12.5225    0.0000 </r>
       <r>   12.5344    0.0000 </r>
       <r>   12.5361    0.0000 </r>
       <r>   12.5495    0.0000 </r>
       <r>   14.3572    0.0000 </r>
       <r>   14.3728    0.0000 </r>
      </set>
      <set comment="kpoint 12">
       <r>  -17.6089    1.0000 </r>
       <r>  -16.5108    1.0000 </r>
       <r>  -16.5053    1.0000 </r>
       <r>  -16.1645    1.0000 </r>
       <r>  -15.1565    1.0000 </r>
       <r>  -15.1513    1.0000 </r>
       <r>  -14.8654    1.0000 </r>
       <r>  -13.9683    1.0000 </r>
       <r>  -13.9637    1.0000 </r>
       <r>  -13.7638    1.0000 </r>
       <r>  -13.7573    1.0000 </r>
       <r>  -12.7117    1.0000 </r>
       <r>  -12.7060    1.0000 </r>
       <r>  -12.2394    1.0000 </r>
       <r>  -11.8983    1.0000 </r>
       <r>  -11.8797    1.0000 </r>
       <r>  -11.8749    1.0000 </r>
       <r>  -11.7491    1.0000 </r>
       <r>  -11.7462    1.0000 </r>
       <r>  -11.1443    1.0000 </r>
       <r>  -10.8139    1.0000 </r>
       <r>  -10.8116    1.0000 </r>
       <r>  -10.6298    1.0000 </r>
       <r>  -10.3941    1.0000 </r>
       <r>    8.5727    0.0000 </r>
       <r>    9.7626    0.0000 </r>
       <r>    9.7663    0.0000 </r>
       <r>    9.8750    0.0000 </r>
       <r>   10.7384    0.0000 </r>
       <r>   11.8642    0.0000 </r>
       <r>   11.8774    0.0000 </r>
       <r>   11.9518    0.0000 </r>
       <r>   11.9571    0.0000 </r>
       <r>   12.3282    0.0000 </r>
       <r>   12.3370    0.0000 </r>
       <r>   12.4874    0.0000 </r>
       <r>   12.4996    0.0000 </r>
       <r>   12.8985    0.0000 </r>
       <r>   13.5664    0.0000 </r>
       <r>   13.5735    0.0000 </r>
      </set>
      <set comment="kpoint 13">
       <r>  -17.6089    1.0000 </r>
       <r>  -16.5108    1.0000 </r>
       <r>  -16.5053    1.0000 </r>
       <r>  -16.1644    1.0000 </r>
       <r>  -15.1564    1.0000 </r>
       <r>  -15.1513    1.0000 </r>
       <r>  -14.8654    1.0000 </r>
       <r>  -13.9683    1.0000 </r>
       <r>  -13.9637    1.0000 </r>
       <r>  -13.7637    1.0000 </r>
       <r>  -13.7573    1.0000 </r>
       <r>  -12.7117    1.0000 </r>
       <r>  -12.7061    1.0000 </r>
       <r>  -12.2393    1.0000 </r>
       <r>  -11.8983    1.0000 </r>
       <r>  -11.8797    1.0000 </r>
       <r>  -11.8749    1.0000 </r>
       <r>  -11.7491    1.0000 </r>
       <r>  -11.7462    1.0000 </r>
       <r>  -11.1443    1.0000 </r>
       <r>  -10.8139    1.0000 </r>
       <r>  -10.8116    1.0000 </r>
       <r>  -10.6297    1.0000 </r>
       <r>  -10.3941    1.0000 </r>
       <r>    8.5727    0.0000 </r>
       <r>    9.7626    0.0000 </r>
       <r>    9.7663    0.0000 </r>
       <r>    9.8750    0.0000 </r>
       <r>   10.7384    0.0000 </r>
       <r>   11.8642    0.0000 </r>
       <r>   11.8774    0.0000 </r>
       <r>   11.9518    0.0000 </r>
       <r>   11.9571    0.0000 </r>
       <r>   12.3283    0.0000 </r>
       <r>   12.3371    0.0000 </r>
       <r>   12.4873    0.0000 </r>
       <r>   12.4995    0.0000 </r>
       <r>   12.8985    0.0000 </r>
       <r>   13.5661    0.0000 </r>
       <r>   13.5734    0.0000 </r>
      </set>
      <set comment="kpoint 14">
       <r>  -17.4213    1.0000 </r>
       <r>  -16.6907    1.0000 </r>
       <r>  -16.3335    1.0000 </r>
       <r>  -16.3280    1.0000 </r>
       <r>  -15.6466    1.0000 </r>
       <r>  -15.6413    1.0000 </r>
       <r>  -14.1420    1.0000 </r>
       <r>  -13.6214    1.0000 </r>
       <r>  -13.6151    1.0000 </r>
       <r>  -13.3251    1.0000 </r>
       <r>  -13.3208    1.0000 </r>
       <r>  -13.0821    1.0000 </r>
       <r>  -13.0761    1.0000 </r>
       <r>  -12.7538    1.0000 </r>
       <r>  -12.1518    1.0000 </r>
       <r>  -12.1485    1.0000 </r>
       <r>  -11.7916    1.0000 </r>
       <r>  -11.4831    1.0000 </r>
       <r>  -11.4790    1.0000 </r>
       <r>  -11.3999    1.0000 </r>
       <r>  -10.9233    1.0000 </r>
       <r>  -10.9205    1.0000 </r>
       <r>  -10.4339    1.0000 </r>
       <r>  -10.3168    1.0000 </r>
       <r>    8.8437    0.0000 </r>
       <r>    9.9268    0.0000 </r>
       <r>   10.2435    0.0000 </r>
       <r>   10.2476    0.0000 </r>
       <r>   10.4578    0.0000 </r>
       <r>   11.7449    0.0000 </r>
       <r>   11.7516    0.0000 </r>
       <r>   11.9761    0.0000 </r>
       <r>   11.9894    0.0000 </r>
       <r>   12.2002    0.0000 </r>
       <r>   12.2053    0.0000 </r>
       <r>   12.3308    0.0000 </r>
       <r>   12.3438    0.0000 </r>
       <r>   12.5198    0.0000 </r>
       <r>   12.9761    0.0000 </r>
       <r>   12.9830    0.0000 </r>
      </set>
      <set comment="kpoint 15">
       <r>  -17.4213    1.0000 </r>
       <r>  -16.6907    1.0000 </r>
       <r>  -16.3335    1.0000 </r>
       <r>  -16.3281    1.0000 </r>
       <r>  -15.6466    1.0000 </r>
       <r>  -15.6413    1.0000 </r>
       <r>  -14.1420    1.0000 </r>
       <r>  -13.6214    1.0000 </r>
       <r>  -13.6151    1.0000 </r>
       <r>  -13.3251    1.0000 </r>
       <r>  -13.3209    1.0000 </r>
       <r>  -13.0821    1.0000 </r>
       <r>  -13.0761    1.0000 </r>
       <r>  -12.7537    1.0000 </r>
       <r>  -12.1518    1.0000 </r>
       <r>  -12.1485    1.0000 </r>
       <r>  -11.7916    1.0000 </r>
       <r>  -11.4831    1.0000 </r>
       <r>  -11.4789    1.0000 </r>
       <r>  -11.4000    1.0000 </r>
       <r>  -10.9233    1.0000 </r>
       <r>  -10.9205    1.0000 </r>
       <r>  -10.4339    1.0000 </r>
       <r>  -10.3168    1.0000 </r>
       <r>    8.8437    0.0000 </r>
       <r>    9.9268    0.0000 </r>
       <r>   10.2435    0.0000 </r>
       <r>   10.2476    0.0000 </r>
       <r>   10.4579    0.0000 </r>
       <r>   11.7450    0.0000 </r>
       <r>   11.7516    0.0000 </r>
       <r>   11.9761    0.0000 </r>
       <r>   11.9894    0.0000 </r>
       <r>   12.2002    0.0000 </r>
       <r>   12.2053    0.0000 </r>
       <r>   12.3307    0.0000 </r>
       <r>   12.3437    0.0000 </r>
       <r>   12.5196    0.0000 </r>
       <r>   12.9761    0.0000 </r>
       <r>   12.9829    0.0000 </r>
      </set>
      <set comment="kpoint 16">
       <r>  -17.1145    1.0000 </r>
       <r>  -17.1116    1.0000 </r>
       <r>  -16.0461    1.0000 </r>
       <r>  -16.0402    1.0000 </r>
       <r>  -16.0401    1.0000 </r>
       <r>  -16.0342    1.0000 </r>
       <r>  -13.4221    1.0000 </r>
       <r>  -13.4169    1.0000 </r>
       <r>  -13.3933    1.0000 </r>
       <r>  -13.3877    1.0000 </r>
       <r>  -13.3875    1.0000 </r>
       <r>  -13.3805    1.0000 </r>
       <r>  -12.7050    1.0000 </r>
       <r>  -12.6994    1.0000 </r>
       <r>  -12.6990    1.0000 </r>
       <r>  -12.6945    1.0000 </r>
       <r>  -11.6225    1.0000 </r>
       <r>  -11.6206    1.0000 </r>
       <r>  -11.1537    1.0000 </r>
       <r>  -11.1504    1.0000 </r>
       <r>  -11.1502    1.0000 </r>
       <r>  -11.1457    1.0000 </r>
       <r>  -10.3237    1.0000 </r>
       <r>  -10.3223    1.0000 </r>
       <r>    9.2940    0.0000 </r>
       <r>    9.2962    0.0000 </r>
       <r>   10.9502    0.0000 </r>
       <r>   10.9574    0.0000 </r>
       <r>   10.9595    0.0000 </r>
       <r>   10.9664    0.0000 </r>
       <r>   11.3640    0.0000 </r>
       <r>   11.3730    0.0000 </r>
       <r>   12.1354    0.0000 </r>
       <r>   12.1490    0.0000 </r>
       <r>   12.1495    0.0000 </r>
       <r>   12.1629    0.0000 </r>
       <r>   12.5470    0.0000 </r>
       <r>   12.5531    0.0000 </r>
       <r>   12.5546    0.0000 </r>
       <r>   12.5675    0.0000 </r>
      </set>
      <set comment="kpoint 17">
       <r>  -17.3655    1.0000 </r>
       <r>  -16.2809    1.0000 </r>
       <r>  -16.2754    1.0000 </r>
       <r>  -15.2861    1.0000 </r>
       <r>  -15.2814    1.0000 </r>
       <r>  -14.3502    1.0000 </r>
       <r>  -14.3440    1.0000 </r>
       <r>  -14.3437    1.0000 </r>
       <r>  -14.3378    1.0000 </r>
       <r>  -13.5793    1.0000 </r>
       <r>  -13.5730    1.0000 </r>
       <r>  -12.1336    1.0000 </r>
       <r>  -12.1278    1.0000 </r>
       <r>  -12.1276    1.0000 </r>
       <r>  -12.1217    1.0000 </r>
       <r>  -11.8513    1.0000 </r>
       <r>  -11.7603    1.0000 </r>
       <r>  -11.4477    1.0000 </r>
       <r>  -11.4450    1.0000 </r>
       <r>  -10.7711    1.0000 </r>
       <r>  -10.7691    1.0000 </r>
       <r>  -10.7213    1.0000 </r>
       <r>  -10.7191    1.0000 </r>
       <r>  -10.4211    1.0000 </r>
       <r>    8.9248    0.0000 </r>
       <r>    9.9783    0.0000 </r>
       <r>   10.0236    0.0000 </r>
       <r>   10.0266    0.0000 </r>
       <r>   12.0079    0.0000 </r>
       <r>   12.0212    0.0000 </r>
       <r>   12.1686    0.0000 </r>
       <r>   12.1719    0.0000 </r>
       <r>   12.2639    0.0000 </r>
       <r>   12.2687    0.0000 </r>
       <r>   12.5932    0.0000 </r>
       <r>   12.6048    0.0000 </r>
       <r>   12.6063    0.0000 </r>
       <r>   12.6192    0.0000 </r>
       <r>   14.0784    0.0000 </r>
       <r>   14.0904    0.0000 </r>
      </set>
      <set comment="kpoint 18">
       <r>  -17.3037    1.0000 </r>
       <r>  -16.2225    1.0000 </r>
       <r>  -16.2170    1.0000 </r>
       <r>  -15.8859    1.0000 </r>
       <r>  -14.8987    1.0000 </r>
       <r>  -14.8937    1.0000 </r>
[...]
       <r>  -11.4071    1.0000 </r>
       <r>  -11.2067    1.0000 </r>
       <r>  -11.2043    1.0000 </r>
       <r>  -11.1730    1.0000 </r>
       <r>  -11.1704    1.0000 </r>
       <r>  -10.5255    1.0000 </r>
       <r>  -10.5243    1.0000 </r>
       <r>  -10.5066    1.0000 </r>
       <r>  -10.5047    1.0000 </r>
       <r>  -10.4198    1.0000 </r>
       <r>  -10.4182    1.0000 </r>
       <r>  -10.3954    1.0000 </r>
       <r>  -10.3937    1.0000 </r>
       <r>    9.6332    0.0000 </r>
       <r>    9.6349    0.0000 </r>
       <r>    9.8307    0.0000 </r>
       <r>    9.8356    0.0000 </r>
       <r>   10.3350    0.0000 </r>
       <r>   10.3375    0.0000 </r>
       <r>   10.4364    0.0000 </r>
       <r>   10.4398    0.0000 </r>
       <r>   10.6671    0.0000 </r>
       <r>   10.6718    0.0000 </r>
       <r>   11.0058    0.0000 </r>
       <r>   11.0085    0.0000 </r>
       <r>   11.3657    0.0000 </r>
       <r>   11.3688    0.0000 </r>
       <r>   11.4407    0.0000 </r>
       <r>   11.4449    0.0000 </r>
      </set>
      <set comment="kpoint 254">
       <r>  -12.4914    1.0000 </r>
       <r>  -12.4900    1.0000 </r>
       <r>  -12.4898    1.0000 </r>
       <r>  -12.4868    1.0000 </r>
       <r>  -11.9849    1.0000 </r>
       <r>  -11.9842    1.0000 </r>
       <r>  -11.9840    1.0000 </r>
       <r>  -11.9810    1.0000 </r>
       <r>  -11.4728    1.0000 </r>
       <r>  -11.4697    1.0000 </r>
       <r>  -11.4696    1.0000 </r>
       <r>  -11.4663    1.0000 </r>
       <r>  -11.1860    1.0000 </r>
       <r>  -11.1838    1.0000 </r>
       <r>  -11.1837    1.0000 </r>
       <r>  -11.1810    1.0000 </r>
       <r>  -10.4646    1.0000 </r>
       <r>  -10.4595    1.0000 </r>
       <r>  -10.4592    1.0000 </r>
       <r>  -10.4591    1.0000 </r>
       <r>  -10.4582    1.0000 </r>
       <r>  -10.4578    1.0000 </r>
       <r>  -10.4577    1.0000 </r>
       <r>  -10.4568    1.0000 </r>
       <r>   10.0838    0.0000 </r>
       <r>   10.0841    0.0000 </r>
       <r>   10.0850    0.0000 </r>
       <r>   10.0901    0.0000 </r>
       <r>   10.3616    0.0000 </r>
       <r>   10.3627    0.0000 </r>
       <r>   10.3631    0.0000 </r>
       <r>   10.3694    0.0000 </r>
       <r>   10.7982    0.0000 </r>
       <r>   10.8006    0.0000 </r>
       <r>   10.8015    0.0000 </r>
       <r>   10.8032    0.0000 </r>
       <r>   10.9081    0.0000 </r>
       <r>   10.9124    0.0000 </r>
       <r>   10.9130    0.0000 </r>
       <r>   10.9159    0.0000 </r>
      </set>
     </set>
    </set>
   </array>
  </eigenvalues>
  <separator name="orbital magnetization" >
   <v name="MAGDIPOLOUT">      0.00000000      0.00000000      0.00000000</v>
  </separator>
  <dos>
   <i name="efermi">    -10.10282621 </i>
   <total>
    <array>
     <dimension dim="1">gridpoints</dimension>
     <dimension dim="2">spin</dimension>
     <field>energy</field>
     <field>total</field>
     <field>integrated</field>
     <set>
      <set comment="spin 1">
       <r>   -19.5449     0.0000     0.0000 </r>
       <r>   -19.4257     0.0000     0.0000 </r>
       <r>   -19.3066     0.0000     0.0000 </r>
       <r>   -19.1874     0.0000     0.0000 </r>
       <r>   -19.0683     0.0000     0.0000 </r>
       <r>   -18.9491     0.0000     0.0000 </r>
       <r>   -18.8300     0.0000     0.0000 </r>
       <r>   -18.7109     0.0000     0.0000 </r>
       <r>   -18.5917     0.0000     0.0000 </r>
       <r>   -18.4726     0.0000     0.0000 </r>
       <r>   -18.3534     0.0000     0.0000 </r>
       <r>   -18.2343     0.0000     0.0000 </r>
       <r>   -18.1151     0.0000     0.0000 </r>
       <r>   -17.9960     0.0000     0.0000 </r>
       <r>   -17.8769     0.0337     0.0040 </r>
       <r>   -17.7577     0.3997     0.0754 </r>
       <r>   -17.6386     0.1514     0.1252 </r>
       <r>   -17.5194     0.9511     0.2919 </r>
       <r>   -17.4003     0.1421     0.3384 </r>
       <r>   -17.2812     1.3851     0.5420 </r>
       <r>   -17.1620     0.9113     0.6602 </r>
       <r>   -17.0429     0.9884     0.8281 </r>
       <r>   -16.9237     0.6411     1.0089 </r>
       <r>   -16.8046     1.4467     1.2001 </r>
       <r>   -16.6854     1.2892     1.4115 </r>
       <r>   -16.5663     1.1855     1.6531 </r>
       <r>   -16.4472     1.0837     1.8315 </r>
       <r>   -16.3280     1.4207     2.0859 </r>
       <r>   -16.2089     1.6947     2.3646 </r>
       <r>   -16.0897     2.5698     2.7149 </r>
       <r>   -15.9706     0.8989     2.8809 </r>
       <r>   -15.8514     1.6188     3.1095 </r>
       <r>   -15.7323     2.1112     3.5333 </r>
       <r>   -15.6132     2.3531     3.8637 </r>
       <r>   -15.4940     1.2157     4.0774 </r>
       <r>   -15.3749     1.3607     4.4280 </r>
       <r>   -15.2557     2.8600     4.8685 </r>
       <r>   -15.1366     1.4585     5.1936 </r>
       <r>   -15.0174     2.1854     5.4945 </r>
       <r>   -14.8983     1.8446     5.8983 </r>
       <r>   -14.7792     3.4441     6.4143 </r>
       <r>   -14.6600     1.7899     6.7569 </r>
       <r>   -14.5409     2.6313     7.2302 </r>
       <r>   -14.4217     2.2082     7.6401 </r>
       <r>   -14.3026     2.1797     8.0335 </r>
       <r>   -14.1835     2.6936     8.5630 </r>
       <r>   -14.0643     3.6977     9.1350 </r>
       <r>   -13.9452     2.7011     9.6036 </r>
       <r>   -13.8260     2.7541    10.1416 </r>
       <r>   -13.7069     2.8931    10.6741 </r>
       <r>   -13.5877     2.2966    11.1347 </r>
       <r>   -13.4686     5.5909    12.0114 </r>
       <r>   -13.3495     3.9698    12.6198 </r>
       <r>   -13.2303     3.0258    13.0946 </r>
       <r>   -13.1112     4.9119    13.8590 </r>
       <r>   -12.9920     5.1585    14.7059 </r>
       <r>   -12.8729     4.7793    15.3274 </r>
       <r>   -12.7537     4.6360    16.1277 </r>
       <r>   -12.6346     4.0680    16.9093 </r>
       <r>   -12.5155     6.6814    17.9270 </r>
       <r>   -12.3963     6.6984    19.0243 </r>
       <r>   -12.2772     6.1604    19.8887 </r>
       <r>   -12.1580     6.6027    21.1319 </r>
       <r>   -12.0389     7.8050    22.3902 </r>
       <r>   -11.9197     9.7179    23.9872 </r>
       <r>   -11.8006     6.8787    25.2759 </r>
       <r>   -11.6815     8.5060    26.6047 </r>
       <r>   -11.5623     8.8774    28.0616 </r>
       <r>   -11.4432     8.0635    29.5044 </r>
       <r>   -11.3240     7.9469    31.0540 </r>
       <r>   -11.2049     8.7052    32.3983 </r>
       <r>   -11.0858     8.7799    34.0103 </r>
       <r>   -10.9666     9.2320    35.6753 </r>
       <r>   -10.8475     8.6686    37.2352 </r>
       <r>   -10.7283    10.0932    38.9684 </r>
       <r>   -10.6092    11.1839    40.9634 </r>
       <r>   -10.4900    15.0188    43.4759 </r>
       <r>   -10.3709    14.5412    46.1769 </r>
       <r>   -10.2518     6.5012    47.7269 </r>
       <r>   -10.1326     0.3997    48.0000 </r>
       <r>   -10.0135     0.0000    48.0000 </r>
       <r>    -9.8943     0.0000    48.0000 </r>
       <r>    -9.7752     0.0000    48.0000 </r>
       <r>    -9.6560     0.0000    48.0000 </r>
       <r>    -9.5369     0.0000    48.0000 </r>
       <r>    -9.4178     0.0000    48.0000 </r>
       <r>    -9.2986     0.0000    48.0000 </r>
       <r>    -9.1795     0.0000    48.0000 </r>
       <r>    -9.0603     0.0000    48.0000 </r>
       <r>    -8.9412     0.0000    48.0000 </r>
       <r>    -8.8220     0.0000    48.0000 </r>
       <r>    -8.7029     0.0000    48.0000 </r>
       <r>    -8.5838     0.0000    48.0000 </r>
       <r>    -8.4646     0.0000    48.0000 </r>
       <r>    -8.3455     0.0000    48.0000 </r>
       <r>    -8.2263     0.0000    48.0000 </r>
       <r>    -8.1072     0.0000    48.0000 </r>
       <r>    -7.9880     0.0000    48.0000 </r>
       <r>    -7.8689     0.0000    48.0000 </r>
       <r>    -7.7498     0.0000    48.0000 </r>
       <r>    -7.6306     0.0000    48.0000 </r>
       <r>    -7.5115     0.0000    48.0000 </r>
       <r>    -7.3923     0.0000    48.0000 </r>
       <r>    -7.2732     0.0000    48.0000 </r>
       <r>    -7.1541     0.0000    48.0000 </r>
       <r>    -7.0349     0.0000    48.0000 </r>
       <r>    -6.9158     0.0000    48.0000 </r>
       <r>    -6.7966     0.0000    48.0000 </r>
       <r>    -6.6775     0.0000    48.0000 </r>
       <r>    -6.5583     0.0000    48.0000 </r>
       <r>    -6.4392     0.0000    48.0000 </r>
       <r>    -6.3201     0.0000    48.0000 </r>
       <r>    -6.2009     0.0000    48.0000 </r>
       <r>    -6.0818     0.0000    48.0000 </r>
       <r>    -5.9626     0.0000    48.0000 </r>
       <r>    -5.8435     0.0000    48.0000 </r>
       <r>    -5.7243     0.0000    48.0000 </r>
       <r>    -5.6052     0.0000    48.0000 </r>
       <r>    -5.4861     0.0000    48.0000 </r>
       <r>    -5.3669     0.0000    48.0000 </r>
       <r>    -5.2478     0.0000    48.0000 </r>
       <r>    -5.1286     0.0000    48.0000 </r>
       <r>    -5.0095     0.0000    48.0000 </r>
       <r>    -4.8903     0.0000    48.0000 </r>
       <r>    -4.7712     0.0000    48.0000 </r>
       <r>    -4.6521     0.0000    48.0000 </r>
       <r>    -4.5329     0.0000    48.0000 </r>
       <r>    -4.4138     0.0000    48.0000 </r>
       <r>    -4.2946     0.0000    48.0000 </r>
       <r>    -4.1755     0.0000    48.0000 </r>
       <r>    -4.0564     0.0000    48.0000 </r>
       <r>    -3.9372     0.0000    48.0000 </r>
       <r>    -3.8181     0.0000    48.0000 </r>
       <r>    -3.6989     0.0000    48.0000 </r>
       <r>    -3.5798     0.0000    48.0000 </r>
       <r>    -3.4606     0.0000    48.0000 </r>
       <r>    -3.3415     0.0000    48.0000 </r>
       <r>    -3.2224     0.0000    48.0000 </r>
       <r>    -3.1032     0.0000    48.0000 </r>
       <r>    -2.9841     0.0000    48.0000 </r>
       <r>    -2.8649     0.0000    48.0000 </r>
       <r>    -2.7458     0.0000    48.0000 </r>
       <r>    -2.6266     0.0000    48.0000 </r>
       <r>    -2.5075     0.0000    48.0000 </r>
       <r>    -2.3884     0.0000    48.0000 </r>
       <r>    -2.2692     0.0000    48.0000 </r>
       <r>    -2.1501     0.0000    48.0000 </r>
       <r>    -2.0309     0.0000    48.0000 </r>
       <r>    -1.9118     0.0000    48.0000 </r>
       <r>    -1.7926     0.0000    48.0000 </r>
       <r>    -1.6735     0.0000    48.0000 </r>
       <r>    -1.5544     0.0000    48.0000 </r>
       <r>    -1.4352     0.0000    48.0000 </r>
       <r>    -1.3161     0.0000    48.0000 </r>
       <r>    -1.1969     0.0000    48.0000 </r>
       <r>    -1.0778     0.0000    48.0000 </r>
       <r>    -0.9587     0.0000    48.0000 </r>
       <r>    -0.8395     0.0000    48.0000 </r>
       <r>    -0.7204     0.0000    48.0000 </r>
       <r>    -0.6012     0.0000    48.0000 </r>
       <r>    -0.4821     0.0000    48.0000 </r>
       <r>    -0.3629     0.0000    48.0000 </r>
       <r>    -0.2438     0.0000    48.0000 </r>
       <r>    -0.1247     0.0000    48.0000 </r>
       <r>    -0.0055     0.0000    48.0000 </r>
       <r>     0.1136     0.0000    48.0000 </r>
       <r>     0.2328     0.0000    48.0000 </r>
       <r>     0.3519     0.0000    48.0000 </r>
       <r>     0.4711     0.0000    48.0000 </r>
       <r>     0.5902     0.0000    48.0000 </r>
       <r>     0.7093     0.0000    48.0000 </r>
       <r>     0.8285     0.0000    48.0000 </r>
       <r>     0.9476     0.0000    48.0000 </r>
       <r>     1.0668     0.0000    48.0000 </r>
       <r>     1.1859     0.0000    48.0000 </r>
       <r>     1.3051     0.0000    48.0000 </r>
       <r>     1.4242     0.0000    48.0000 </r>
       <r>     1.5433     0.0000    48.0000 </r>
       <r>     1.6625     0.0000    48.0000 </r>
       <r>     1.7816     0.0000    48.0000 </r>
       <r>     1.9008     0.0000    48.0000 </r>
       <r>     2.0199     0.0000    48.0000 </r>
       <r>     2.1390     0.0000    48.0000 </r>
       <r>     2.2582     0.0000    48.0000 </r>
       <r>     2.3773     0.0000    48.0000 </r>
       <r>     2.4965     0.0000    48.0000 </r>
       <r>     2.6156     0.0000    48.0000 </r>
       <r>     2.7348     0.0000    48.0000 </r>
       <r>     2.8539     0.0000    48.0000 </r>
       <r>     2.9730     0.0000    48.0000 </r>
       <r>     3.0922     0.0000    48.0000 </r>
       <r>     3.2113     0.0000    48.0000 </r>
       <r>     3.3305     0.0000    48.0000 </r>
       <r>     3.4496     0.0000    48.0000 </r>
       <r>     3.5688     0.0000    48.0000 </r>
       <r>     3.6879     0.0000    48.0000 </r>
       <r>     3.8070     0.0000    48.0000 </r>
       <r>     3.9262     0.0000    48.0000 </r>
       <r>     4.0453     0.0000    48.0000 </r>
       <r>     4.1645     0.0000    48.0000 </r>
       <r>     4.2836     0.0000    48.0000 </r>
       <r>     4.4028     0.0000    48.0000 </r>
       <r>     4.5219     0.0000    48.0000 </r>
       <r>     4.6410     0.0000    48.0000 </r>
       <r>     4.7602     0.0000    48.0000 </r>
       <r>     4.8793     0.0000    48.0000 </r>
       <r>     4.9985     0.0000    48.0000 </r>
       <r>     5.1176     0.0000    48.0000 </r>
       <r>     5.2367     0.0000    48.0000 </r>
       <r>     5.3559     0.0000    48.0000 </r>
       <r>     5.4750     0.0000    48.0000 </r>
       <r>     5.5942     0.0000    48.0000 </r>
       <r>     5.7133     0.0000    48.0000 </r>
       <r>     5.8325     0.0000    48.0000 </r>
       <r>     5.9516     0.0000    48.0000 </r>
       <r>     6.0707     0.0000    48.0000 </r>
       <r>     6.1899     0.0000    48.0000 </r>
       <r>     6.3090     0.0000    48.0000 </r>
       <r>     6.4282     0.0000    48.0000 </r>
       <r>     6.5473     0.0000    48.0000 </r>
       <r>     6.6665     0.0000    48.0000 </r>
       <r>     6.7856     0.0000    48.0000 </r>
       <r>     6.9047     0.0000    48.0000 </r>
       <r>     7.0239     0.0000    48.0000 </r>
       <r>     7.1430     0.0000    48.0000 </r>
       <r>     7.2622     0.0000    48.0000 </r>
       <r>     7.3813     0.0000    48.0000 </r>
       <r>     7.5005     0.0000    48.0000 </r>
       <r>     7.6196     0.0000    48.0000 </r>
       <r>     7.7387     0.0000    48.0000 </r>
       <r>     7.8579     0.0000    48.0000 </r>
       <r>     7.9770     0.0000    48.0000 </r>
       <r>     8.0962     0.0000    48.0000 </r>
       <r>     8.2153     0.0481    48.0097 </r>
       <r>     8.3345     0.1332    48.0357 </r>
       <r>     8.4536     0.0670    48.0437 </r>
       <r>     8.5727     0.3482    48.1327 </r>
       <r>     8.6919     0.0000    48.1548 </r>
       <r>     8.8110     0.2016    48.1946 </r>
       <r>     8.9302     0.0557    48.2725 </r>
       <r>     9.0493     0.2660    48.3134 </r>
       <r>     9.1684     0.2442    48.3743 </r>
       <r>     9.2876     1.4857    48.5857 </r>
       <r>     9.4067     1.2547    48.8598 </r>
       <r>     9.5259     2.9502    49.3356 </r>
       <r>     9.6450     3.2338    49.8535 </r>
       <r>     9.7642     3.0914    50.3762 </r>
       <r>     9.8833     3.2561    50.8879 </r>
       <r>    10.0024     2.2625    51.2854 </r>
       <r>    10.1216     4.6020    52.0166 </r>
       <r>    10.2407     3.7977    52.7541 </r>
       <r>    10.3599     2.9362    53.2625 </r>
       <r>    10.4790     4.9354    54.0880 </r>
       <r>    10.5982     3.7292    54.7141 </r>
       <r>    10.7173     2.9205    55.3559 </r>
       <r>    10.8364     5.0587    56.1741 </r>
       <r>    10.9556     4.7276    57.1982 </r>
       <r>    11.0747     5.2984    58.2900 </r>
       <r>    11.1939     5.2423    59.1722 </r>
       <r>    11.3130     5.7458    60.0854 </r>
       <r>    11.4322     7.1704    61.1956 </r>
       <r>    11.5513     5.2203    62.0664 </r>
       <r>    11.6704     9.0658    63.3817 </r>
       <r>    11.7896     6.5053    64.5052 </r>
       <r>    11.9087     7.6742    65.8032 </r>
       <r>    12.0279     5.3772    66.8629 </r>
       <r>    12.1470     7.5980    68.1671 </r>
       <r>    12.2661     8.4000    69.6040 </r>
       <r>    12.3853     6.0791    70.7163 </r>
       <r>    12.5044     9.2494    72.2052 </r>
       <r>    12.6236     5.7256    73.4203 </r>
       <r>    12.7427     4.4616    74.3014 </r>
       <r>    12.8619     4.3859    75.0702 </r>
       <r>    12.9810     2.8075    75.5567 </r>
       <r>    13.1001     3.0735    76.1281 </r>
       <r>    13.2193     3.1773    76.7674 </r>
       <r>    13.3384     8.5594    78.0674 </r>
       <r>    13.4576     1.5576    78.4554 </r>
       <r>    13.5767     1.6129    78.6763 </r>
       <r>    13.6959     1.6665    78.9287 </r>
       <r>    13.8150     1.3300    79.1902 </r>
       <r>    13.9341     1.4117    79.4222 </r>
       <r>    14.0533     1.2262    79.6620 </r>
       <r>    14.1724     0.9668    79.9168 </r>
       <r>    14.2916     0.0666    79.9444 </r>
       <r>    14.4107     0.1333    79.9603 </r>
       <r>    14.5299     0.1224    79.9908 </r>
       <r>    14.6490     0.0333    80.0000 </r>
       <r>    14.7681     0.0000    80.0000 </r>
       <r>    14.8873     0.0000    80.0000 </r>
       <r>    15.0064     0.0000    80.0000 </r>
       <r>    15.1256     0.0000    80.0000 </r>
       <r>    15.2447     0.0000    80.0000 </r>
       <r>    15.3638     0.0000    80.0000 </r>
       <r>    15.4830     0.0000    80.0000 </r>
       <r>    15.6021     0.0000    80.0000 </r>
       <r>    15.7213     0.0000    80.0000 </r>
       <r>    15.8404     0.0000    80.0000 </r>
       <r>    15.9596     0.0000    80.0000 </r>
       <r>    16.0787     0.0000    80.0000 </r>
       <r>    16.1978     0.0000    80.0000 </r>
      </set>
     </set>
    </array>
   </total>
  </dos>
 </calculation>
 <structure name="finalpos" >
  <crystal>
   <varray name="basis" >
    <v>       5.86288214       3.38493658       0.00000000 </v>
    <v>      -0.97714702       1.69246829       0.00000000 </v>
    <v>       0.00000000       0.00000000       9.56312345 </v>
   </varray>
   <i name="volume">    126.52321019 </i>
   <varray name="rec_basis" >
    <v>       0.12792343       0.07385663      -0.00000000 </v>
    <v>      -0.25584686       0.44313976       0.00000000 </v>
    <v>       0.00000000      -0.00000000       0.10456835 </v>
   </varray>
  </crystal>
  <varray name="positions" >
   <v>       0.08417518       0.50084184       0.08417518 </v>
   <v>       0.33333333       0.00000000       0.08333333 </v>
   <v>       0.58333333       0.50000000       0.08333333 </v>
   <v>       0.83333333       0.00000000       0.08333333 </v>
   <v>       0.08333333       0.50000000       0.41666667 </v>
   <v>       0.33333333       0.00000000       0.41666667 </v>
   <v>       0.58333333       0.50000000       0.41666667 </v>
   <v>       0.83333333       0.00000000       0.41666667 </v>
   <v>       0.08333333       0.50000000       0.75000000 </v>
   <v>       0.33333333       0.00000000       0.75000000 </v>
   <v>       0.58333333       0.50000000       0.75000000 </v>
   <v>       0.83333333       0.00000000       0.75000000 </v>
   <v>       0.16666667       0.00000000       0.25000000 </v>
   <v>       0.41666667       0.50000000       0.25000000 </v>
   <v>       0.66666667       0.00000000       0.25000000 </v>
   <v>       0.91666667       0.50000000       0.25000000 </v>
   <v>       0.16666667       0.00000000       0.58333333 </v>
   <v>       0.41666667       0.50000000       0.58333333 </v>
   <v>       0.66666667       0.00000000       0.58333333 </v>
   <v>       0.91666667       0.50000000       0.58333333 </v>
   <v>       0.16666667       0.00000000       0.91666667 </v>
   <v>       0.41666667       0.50000000       0.91666667 </v>
   <v>       0.66666667       0.00000000       0.91666667 </v>
   <v>       0.91666667       0.50000000       0.91666667 </v>
  </varray>
 </structure>
</modeling>
