8    
2    

1    
 -0.0040824829046386   0.0081649658092773   0.0040824829046386
   0.0068808700   -0.0138775100   -0.0024923400
  -0.0039303900   -0.0027381400   -0.0003454000
   0.0001609900    0.0051140200   -0.0001755600
   0.0001504500    0.0050816000   -0.0001716000
  -0.0000839900    0.0012085000    0.0008064800
  -0.0015975200    0.0020727700    0.0008295100
  -0.0001047600    0.0011915900    0.0007841400
  -0.0014756500    0.0019471600    0.0007647600

5    
 -0.0040824829046386   0.0081649658092773   0.0040824829046386
   0.0000046800    0.0012457900    0.0007967700
  -0.0015496600    0.0019192000    0.0007768400
  -0.0016644100    0.0020330200    0.0008407000
   0.0000328200    0.0012680700    0.0008188200
   0.0060351000   -0.0124276300   -0.0034064900
  -0.0026445800   -0.0019015400   -0.0000733500
  -0.0000998600    0.0039407000    0.0001196700
  -0.0001140700    0.0039224000    0.0001270200
