phonopy:
  version: "2.33.3"
  calculator: vasp
  frequency_unit_conversion_factor: 15.633302
  symmetry_tolerance: 1.00000e-05
  configuration:
    dim: "2 -1 0 0 2 0 0 0 1"

physical_unit:
  atomic_mass: "AMU"
  length: "angstrom"
  force: "eV/angstrom"
  force_constants: "eV/angstrom^2"

space_group:
  type: "Pm-3m"
  number: 221
  Hall_symbol: "-P 4 2 3"

supercell_matrix:
- [   2,  -1,   0 ]
- [   0,   2,   0 ]
- [   0,   0,   1 ]

primitive_cell:
  lattice:
  - [     4.143698340000000,     0.000000000000000,     0.000000000000000 ] # a
  - [     0.000000000000001,     4.143698340000000,     0.000000000000000 ] # b
  - [     0.000000000000000,     0.000000000000000,     4.143698340000000 ] # c
  points:
  - symbol: Cs # 1
    coordinates: [  0.000000000000000,  0.000000000000000,  0.000000000000000 ]
    mass: 132.905452
  - symbol: Cl # 2
    coordinates: [  0.500000000000000,  0.500000000000000,  0.500000000000000 ]
    mass: 35.453000
  reciprocal_lattice: # without 2pi
  - [     0.241330308808146,    -0.000000000000000,     0.000000000000000 ] # a*
  - [     0.000000000000000,     0.241330308808146,     0.000000000000000 ] # b*
  - [    -0.000000000000000,    -0.000000000000000,     0.241330308808146 ] # c*

unit_cell:
  lattice:
  - [     4.143698340000000,     0.000000000000000,     0.000000000000000 ] # a
  - [     0.000000000000001,     4.143698340000000,     0.000000000000000 ] # b
  - [     0.000000000000000,     0.000000000000000,     4.143698340000000 ] # c
  points:
  - symbol: Cs # 1
    coordinates: [  0.000000000000000,  0.000000000000000,  0.000000000000000 ]
    mass: 132.905452
    reduced_to: 1
  - symbol: Cl # 2
    coordinates: [  0.500000000000000,  0.500000000000000,  0.500000000000000 ]
    mass: 35.453000
    reduced_to: 2

supercell:
  lattice:
  - [     8.287396680000001,     0.000000000000000,     0.000000000000001 ] # a
  - [    -4.143698339999998,     8.287396680000001,     0.000000000000000 ] # b
  - [     0.000000000000000,     0.000000000000000,     4.143698340000000 ] # c
  points:
  - symbol: Cs # 1
    coordinates: [  0.000000000000000,  0.000000000000000,  0.000000000000000 ]
    mass: 132.905452
    reduced_to: 1
  - symbol: Cs # 2
    coordinates: [  0.500000000000000,  0.000000000000000,  0.000000000000000 ]
    mass: 132.905452
    reduced_to: 1
  - symbol: Cs # 3
    coordinates: [  0.250000000000000,  0.500000000000000,  0.000000000000000 ]
    mass: 132.905452
    reduced_to: 1
  - symbol: Cs # 4
    coordinates: [  0.750000000000000,  0.500000000000000,  0.000000000000000 ]
    mass: 132.905452
    reduced_to: 1
  - symbol: Cl # 5
    coordinates: [  0.375000000000000,  0.250000000000000,  0.500000000000000 ]
    mass: 35.453000
    reduced_to: 5
  - symbol: Cl # 6
    coordinates: [  0.875000000000000,  0.250000000000000,  0.500000000000000 ]
    mass: 35.453000
    reduced_to: 5
  - symbol: Cl # 7
    coordinates: [  0.625000000000000,  0.750000000000000,  0.500000000000000 ]
    mass: 35.453000
    reduced_to: 5
  - symbol: Cl # 8
    coordinates: [  0.125000000000000,  0.750000000000000,  0.500000000000000 ]
    mass: 35.453000
    reduced_to: 5

force_constants:
  format: "compact"
  shape: [ 2, 8 ]
  elements:
  - # (1, 1)
    - [     1.685462048642461,     0.000000000000002,     0.000000000000000 ]
    - [     0.000000000000000,     1.699640920018541,     0.000000000000000 ]
    - [     0.000000000000000,     0.000000000000000,     0.610496126552827 ]
  - # (1, 2)
    - [    -0.962744999013764,     0.000000000000000,    -0.000000000000000 ]
    - [     0.000000000000000,     0.335352292215215,     0.000000000000000 ]
    - [    -0.000000000000000,     0.000000000000000,     0.084605375715731 ]
  - # (1, 3)
    - [     0.038143454274620,    -0.000000000000001,     0.000000000000000 ]
    - [    -0.000000000000000,    -0.624351665282873,    -0.000000000000000 ]
    - [     0.000000000000000,    -0.000000000000000,     0.042518242955231 ]
  - # (1, 4)
    - [     0.038143454274620,    -0.000000000000001,     0.000000000000000 ]
    - [    -0.000000000000000,    -0.624351665282873,    -0.000000000000000 ]
    - [    -0.000000000000000,    -0.000000000000000,     0.042518242955231 ]
  - # (1, 5)
    - [    -0.199750989544484,    -0.099194536623748,    -0.000000000000000 ]
    - [    -0.088316965048483,    -0.196572164230785,    -0.000000000000000 ]
    - [    -0.000000000000000,    -0.000000000000000,    -0.195033884672319 ]
  - # (1, 6)
    - [    -0.199750989544484,     0.099194536623748,    -0.000000000000000 ]
    - [     0.088316965048483,    -0.196572164230785,    -0.000000000000000 ]
    - [     0.000000000000000,    -0.000000000000000,    -0.195033884672319 ]
  - # (1, 7)
    - [    -0.199750989544484,    -0.099194536623748,    -0.000000000000000 ]
    - [    -0.088316965048483,    -0.196572164230785,    -0.000000000000000 ]
    - [    -0.000000000000000,    -0.000000000000000,    -0.195033884672319 ]
  - # (1, 8)
    - [    -0.199750989544484,     0.099194536623748,     0.000000000000000 ]
    - [     0.088316965048483,    -0.196572164230785,    -0.000000000000000 ]
    - [     0.000000000000000,    -0.000000000000000,    -0.195033884672319 ]
  - # (2, 1)
    - [    -0.194524390805821,    -0.088081201660741,    -0.000000000000000 ]
    - [    -0.099558592036768,    -0.197982457950192,    -0.000000000000000 ]
    - [    -0.000000000000000,    -0.000000000000000,    -0.197987969302116 ]
  - # (2, 2)
    - [    -0.194524390805820,     0.088081201660741,    -0.000000000000000 ]
    - [     0.099558592036768,    -0.197982457950192,    -0.000000000000000 ]
    - [    -0.000000000000000,     0.000000000000000,    -0.197987969302116 ]
  - # (2, 3)
    - [    -0.194524390805820,     0.088081201660741,    -0.000000000000000 ]
    - [     0.099558592036768,    -0.197982457950192,    -0.000000000000000 ]
    - [    -0.000000000000000,     0.000000000000000,    -0.197987969302116 ]
  - # (2, 4)
    - [    -0.194524390805820,    -0.088081201660741,    -0.000000000000000 ]
    - [    -0.099558592036768,    -0.197982457950192,    -0.000000000000000 ]
    - [    -0.000000000000000,    -0.000000000000000,    -0.197987969302116 ]
  - # (2, 5)
    - [     1.478291554667086,     0.000000000000001,     0.000000000000000 ]
    - [     0.000000000000000,     1.522067610605218,     0.000000000000000 ]
    - [     0.000000000000000,    -0.000000000000000,     0.834416231389353 ]
  - # (2, 6)
    - [    -0.647787158396958,     0.000000000000000,    -0.000000000000000 ]
    - [     0.000000000000000,     0.232890136274595,     0.000000000000000 ]
    - [    -0.000000000000000,    -0.000000000000000,     0.017967007263315 ]
  - # (2, 7)
    - [    -0.026200967033681,    -0.000000000000000,    -0.000000000000000 ]
    - [    -0.000000000000000,    -0.481514569911958,    -0.000000000000000 ]
    - [    -0.000000000000000,     0.000000000000000,    -0.030213231232359 ]
  - # (2, 8)
    - [    -0.026200967033681,    -0.000000000000000,    -0.000000000000000 ]
    - [    -0.000000000000000,    -0.481514569911958,    -0.000000000000000 ]
    - [    -0.000000000000000,    -0.000000000000000,    -0.030213231232359 ]