phonopy:
  version: "2.33.3"
  frequency_unit_conversion_factor: 15.633302
  symmetry_tolerance: 1.00000e-05
  configuration:
    force_sets: "READ"
    force_constants: "WRITE"
    fc_format: "HDF5"
    fc_symmetry: ".FALSE."
    include_fc: ".TRUE."
    primitive_axes: "1 0 0 0 1 0 0 0 1"
    dim: "-2 1 0 -2 -1 0 2 0 1"

physical_unit:
  atomic_mass: "AMU"
  length: "angstrom"
  force: "eV/angstrom"
  force_constants: "eV/angstrom^2"

space_group:
  type: "Fd-3m"
  number: 227
  Hall_symbol: "F 4d 2 3 -1d"

primitive_matrix:
- [  1.000000000000000,  0.000000000000000,  0.000000000000000 ]
- [  0.000000000000000,  1.000000000000000,  0.000000000000000 ]
- [  0.000000000000000,  0.000000000000000,  1.000000000000000 ]

supercell_matrix:
- [  -2,   1,   0 ]
- [  -2,  -1,   0 ]
- [   2,   0,   1 ]

primitive_cell:
  lattice:
  - [     0.000000000000000,     2.721851186499999,     2.721851186499999 ] # a
  - [     2.721851186499999,     0.000000000000000,     2.721851186499999 ] # b
  - [     2.721851186500000,     2.721851186499999,     0.000000000000000 ] # c
  points:
  - symbol: Si # 1
    coordinates: [  0.000000000000000,  0.000000000000000,  1.000000000000000 ]
    mass: 28.085500
  - symbol: Si # 2
    coordinates: [  0.250000000000000,  0.250000000000000,  0.250000000000000 ]
    mass: 28.085500
  reciprocal_lattice: # without 2pi
  - [    -0.183698507280607,     0.183698507280607,     0.183698507280607 ] # a*
  - [     0.183698507280607,    -0.183698507280607,     0.183698507280607 ] # b*
  - [     0.183698507280607,     0.183698507280607,    -0.183698507280607 ] # c*

unit_cell:
  lattice:
  - [     0.000000000000000,     2.721851186500000,     2.721851186500000 ] # a
  - [     2.721851186500000,     0.000000000000000,     2.721851186500000 ] # b
  - [     2.721851186500000,     2.721851186500000,     0.000000000000000 ] # c
  points:
  - symbol: Si # 1
    coordinates: [  0.000000000000000,  0.000000000000000,  1.000000000000000 ]
    mass: 28.085500
    reduced_to: 1
  - symbol: Si # 2
    coordinates: [  0.250000000000000,  0.250000000000000,  0.250000000000000 ]
    mass: 28.085500
    reduced_to: 2

supercell:
  lattice:
  - [     0.000000000000001,     0.000000000000000,   -10.887404745999998 ] # a
  - [    -2.721851186499999,     2.721851186499999,    -0.000000000000000 ] # b
  - [     2.721851186500000,     2.721851186499999,     0.000000000000000 ] # c
  points:
  - symbol: Si # 1
    coordinates: [  0.000000000000000,  0.000000000000000,  1.000000000000000 ]
    mass: 28.085500
    reduced_to: 1
  - symbol: Si # 2
    coordinates: [  0.750000000000000,  0.500000000000000,  0.500000000000000 ]
    mass: 28.085500
    reduced_to: 1
  - symbol: Si # 3
    coordinates: [  0.500000000000000,  0.000000000000000,  1.000000000000000 ]
    mass: 28.085500
    reduced_to: 1
  - symbol: Si # 4
    coordinates: [  0.250000000000000,  0.500000000000000,  0.500000000000000 ]
    mass: 28.085500
    reduced_to: 1
  - symbol: Si # 5
    coordinates: [  0.875000000000000,  0.000000000000000,  0.500000000000000 ]
    mass: 28.085500
    reduced_to: 5
  - symbol: Si # 6
    coordinates: [  0.625000000000000,  0.500000000000000,  1.000000000000000 ]
    mass: 28.085500
    reduced_to: 5
  - symbol: Si # 7
    coordinates: [  0.375000000000000,  0.000000000000000,  0.500000000000000 ]
    mass: 28.085500
    reduced_to: 5
  - symbol: Si # 8
    coordinates: [  0.125000000000000,  0.500000000000000,  1.000000000000000 ]
    mass: 28.085500
    reduced_to: 5

force_constants:
  format: "compact"
  shape: [ 2, 8 ]
  elements:
  - # (1, 1)
    - [    12.381692882803890,     0.000000000000002,    -0.000000000000011 ]
    - [     0.000000000000002,    12.381692882803893,     0.000000000000009 ]
    - [    -0.000000000000000,     0.000000000000003,    15.235812732444765 ]
  - # (1, 2)
    - [     0.406288000120597,     0.000012727922061,     0.000000000000001 ]
    - [     0.000012727922061,     0.406288000120597,    -0.000000000000001 ]
    - [     0.000000000000000,     0.000000000000000,    -0.915903392855658 ]
  - # (1, 3)
    - [     0.194255667820784,     0.000000000000000,     0.000000000000000 ]
    - [     0.000000000000000,     0.194255667820784,    -0.000000000000000 ]
    - [     0.000000000000000,     0.000000000000000,    -0.016206357094710 ]
  - # (1, 4)
    - [     0.406288000120597,    -0.000012727922061,     0.000000000000001 ]
    - [    -0.000012727922061,     0.406288000120597,    -0.000000000000000 ]
    - [     0.000000000000000,     0.000000000000000,    -0.915903392855658 ]
  - # (1, 5)
    - [    -6.366655107515137,    -4.606523493572051,     0.000000000000004 ]
    - [    -4.606523493572051,    -6.366655107515136,    -0.000000000000004 ]
    - [    -0.000000000000001,    -0.000000000000002,    -6.654392589905959 ]
  - # (1, 6)
    - [    -0.327607167917799,     0.223433368486274,     0.000000000000000 ]
    - [     0.223433368486274,    -0.327607167917799,    -0.000000000000000 ]
    - [     0.000000000000000,    -0.000000000000000,    -0.039506674583326 ]
  - # (1, 7)
    - [    -0.327607167917799,    -0.223433368486274,     0.000000000000000 ]
    - [    -0.223433368486274,    -0.327607167917799,    -0.000000000000000 ]
    - [    -0.000000000000000,    -0.000000000000000,    -0.039506674583326 ]
  - # (1, 8)
    - [    -6.366655107515133,     4.606523493572049,     0.000000000000005 ]
    - [     4.606523493572049,    -6.366655107515136,    -0.000000000000003 ]
    - [     0.000000000000001,    -0.000000000000001,    -6.654392589905959 ]
  - # (2, 1)
    - [    -6.366655107515139,    -4.606523493572052,     0.000000000000004 ]
    - [    -4.606523493572052,    -6.366655107515135,    -0.000000000000004 ]
    - [     0.000000000000002,     0.000000000000001,    -6.654392589905959 ]
  - # (2, 2)
    - [    -6.366655107515133,     4.606523493572048,     0.000000000000004 ]
    - [     4.606523493572048,    -6.366655107515135,    -0.000000000000004 ]
    - [     0.000000000000002,    -0.000000000000001,    -6.654392589905959 ]
  - # (2, 3)
    - [    -0.327607167917799,    -0.223433368486274,     0.000000000000000 ]
    - [    -0.223433368486274,    -0.327607167917799,    -0.000000000000000 ]
    - [     0.000000000000000,     0.000000000000000,    -0.039506674583326 ]
  - # (2, 4)
    - [    -0.327607167917799,     0.223433368486274,     0.000000000000000 ]
    - [     0.223433368486274,    -0.327607167917799,    -0.000000000000000 ]
    - [     0.000000000000000,    -0.000000000000000,    -0.039506674583326 ]
  - # (2, 5)
    - [    12.381692882803893,     0.000000000000003,    -0.000000000000009 ]
    - [     0.000000000000003,    12.381692882803890,     0.000000000000011 ]
    - [    -0.000000000000004,    -0.000000000000000,    15.235812732444765 ]
  - # (2, 6)
    - [     0.406288000120597,    -0.000012727922061,     0.000000000000001 ]
    - [    -0.000012727922061,     0.406288000120597,    -0.000000000000001 ]
    - [     0.000000000000000,     0.000000000000000,    -0.915903392855658 ]
  - # (2, 7)
    - [     0.194255667820784,     0.000000000000000,     0.000000000000000 ]
    - [     0.000000000000000,     0.194255667820784,    -0.000000000000000 ]
    - [    -0.000000000000000,     0.000000000000000,    -0.016206357094710 ]
  - # (2, 8)
    - [     0.406288000120597,     0.000012727922061,     0.000000000000001 ]
    - [     0.000012727922061,     0.406288000120597,    -0.000000000000001 ]
    - [     0.000000000000000,     0.000000000000000,    -0.915903392855658 ]