phonopy:
  version: "2.33.3"
  frequency_unit_conversion_factor: 15.633302
  symmetry_tolerance: 1.00000e-05
  configuration:
    force_sets: "READ"
    force_constants: "WRITE"
    fc_format: "HDF5"
    fc_symmetry: ".FALSE."
    include_fc: ".TRUE."
    primitive_axes: "1 0 0 0 1 0 0 0 1"
    dim: "2 0 0 0 1 0 -1 0 1"

physical_unit:
  atomic_mass: "AMU"
  length: "angstrom"
  force: "eV/angstrom"
  force_constants: "eV/angstrom^2"

space_group:
  type: "Fd-3m"
  number: 227
  Hall_symbol: "F 4d 2 3 -1d"

primitive_matrix:
- [  1.000000000000000,  0.000000000000000,  0.000000000000000 ]
- [  0.000000000000000,  1.000000000000000,  0.000000000000000 ]
- [  0.000000000000000,  0.000000000000000,  1.000000000000000 ]

supercell_matrix:
- [   2,   0,   0 ]
- [   0,   1,   0 ]
- [  -1,   0,   1 ]

primitive_cell:
  lattice:
  - [     0.000000000000000,     2.721851186500000,     2.721851186500000 ] # a
  - [     2.721851186500000,     0.000000000000000,     2.721851186500000 ] # b
  - [     2.721851186500000,     2.721851186500000,     0.000000000000000 ] # c
  points:
  - symbol: Si # 1
    coordinates: [  0.000000000000000,  0.000000000000000,  1.000000000000000 ]
    mass: 28.085500
  - symbol: Si # 2
    coordinates: [  0.250000000000000,  0.250000000000000,  0.250000000000000 ]
    mass: 28.085500
  reciprocal_lattice: # without 2pi
  - [    -0.183698507280607,     0.183698507280607,     0.183698507280607 ] # a*
  - [     0.183698507280607,    -0.183698507280607,     0.183698507280607 ] # b*
  - [     0.183698507280607,     0.183698507280607,    -0.183698507280607 ] # c*

unit_cell:
  lattice:
  - [     0.000000000000000,     2.721851186500000,     2.721851186500000 ] # a
  - [     2.721851186500000,     0.000000000000000,     2.721851186500000 ] # b
  - [     2.721851186500000,     2.721851186500000,     0.000000000000000 ] # c
  points:
  - symbol: Si # 1
    coordinates: [  0.000000000000000,  0.000000000000000,  1.000000000000000 ]
    mass: 28.085500
    reduced_to: 1
  - symbol: Si # 2
    coordinates: [  0.250000000000000,  0.250000000000000,  0.250000000000000 ]
    mass: 28.085500
    reduced_to: 2

supercell:
  lattice:
  - [    -2.721851186499999,     2.721851186500000,     5.443702373000000 ] # a
  - [     2.721851186500000,     0.000000000000000,     2.721851186500000 ] # b
  - [     2.721851186500000,     2.721851186500000,     0.000000000000000 ] # c
  points:
  - symbol: Si # 1
    coordinates: [  0.000000000000000,  0.000000000000000,  1.000000000000000 ]
    mass: 28.085500
    reduced_to: 1
  - symbol: Si # 2
    coordinates: [  0.500000000000000,  0.000000000000000,  0.500000000000000 ]
    mass: 28.085500
    reduced_to: 1
  - symbol: Si # 3
    coordinates: [  0.125000000000000,  0.250000000000000,  0.375000000000000 ]
    mass: 28.085500
    reduced_to: 3
  - symbol: Si # 4
    coordinates: [  0.625000000000000,  0.250000000000000,  0.875000000000000 ]
    mass: 28.085500
    reduced_to: 3

force_constants:
  format: "compact"
  shape: [ 2, 4 ]
  elements:
  - # (1, 1)
    - [    13.567639177879753,    -0.505803710201476,    -0.505803710201480 ]
    - [    -0.505803710201480,    13.567639177879759,     0.505803710201478 ]
    - [    -0.505803710201477,     0.505803710201471,    13.567639177879748 ]
  - # (1, 2)
    - [    -0.179602711665223,     0.504759002826100,     0.504759002826100 ]
    - [     0.504759002826100,    -0.179602711665224,    -0.504759002826100 ]
    - [     0.504759002826100,    -0.504759002826100,    -0.179602711665223 ]
  - # (1, 3)
    - [   -10.289965317985310,    -2.158852273449960,    -2.158852273449959 ]
    - [    -2.158852273449960,   -10.289965317985310,     2.158852273449960 ]
    - [    -2.158852273449959,     2.158852273449963,   -10.289965317985306 ]
  - # (1, 4)
    - [    -3.098070842043004,     2.159896674639120,     2.159896674639121 ]
    - [     2.159896674639120,    -3.098070842043005,    -2.159896674639122 ]
    - [     2.159896674639118,    -2.159896674639118,    -3.098070842043001 ]
  - # (2, 1)
    - [   -10.289965317985310,    -2.158852273449960,    -2.158852273449959 ]
    - [    -2.158852273449961,   -10.289965317985310,     2.158852273449960 ]
    - [    -2.158852273449962,     2.158852273449961,   -10.289965317985306 ]
  - # (2, 2)
    - [    -3.098070842043006,     2.159896674639120,     2.159896674639122 ]
    - [     2.159896674639120,    -3.098070842043004,    -2.159896674639120 ]
    - [     2.159896674639118,    -2.159896674639117,    -3.098070842043001 ]
  - # (2, 3)
    - [    13.567639177879759,    -0.505803710201480,    -0.505803710201479 ]
    - [    -0.505803710201476,    13.567639177879753,     0.505803710201478 ]
    - [    -0.505803710201472,     0.505803710201475,    13.567639177879748 ]
  - # (2, 4)
    - [    -0.179602711665224,     0.504759002826100,     0.504759002826100 ]
    - [     0.504759002826100,    -0.179602711665223,    -0.504759002826100 ]
    - [     0.504759002826099,    -0.504759002826100,    -0.179602711665223 ]