<?xml version="1.0" encoding="ISO-8859-1"?>
<modeling>
 <generator>
  <i name="program" type="string">vasp </i>
  <i name="version" type="string">6.4.3  </i>
  <i name="subversion" type="string">19Mar24 (build Jun 20 2024 15:56:09) complex                          parallel </i>
  <i name="platform" type="string">LinuxNV_CrayMPICH </i>
  <i name="date" type="string">2025 02 12 </i>
  <i name="time" type="string">10:52:00 </i>
 </generator>
 <incar>
  <i type="string" name="PREC">Accurate</i>
  <i type="int" name="IBRION">    -1</i>
  <i name="EDIFF">      0.00000010</i>
  <i type="int" name="NSW">     0</i>
  <i name="ENCUT">    900.00000000</i>
  <i type="logical" name="LREAL"> F  </i>
  <i type="int" name="ISMEAR">     0</i>
  <i name="SIGMA">      0.01000000</i>
  <i type="logical" name="LWAVE"> F  </i>
  <i type="logical" name="LCHARG"> F  </i>
  <i type="int" name="IVDW">    12</i>
 </incar>
 <primitive_cell>
  <structure name="primitive_cell" >
   <crystal>
    <varray name="basis" >
     <v>      -0.97714702      -1.69246829       0.00000000 </v>
     <v>       1.95429405       0.00000000       0.00000000 </v>
     <v>       0.00000000       0.00000000       3.18770782 </v>
    </varray>
    <i name="volume">     10.54360085 </i>
    <varray name="rec_basis" >
     <v>       0.00000000      -0.59085302       0.00000000 </v>
     <v>       0.51169373      -0.29542651       0.00000000 </v>
     <v>      -0.00000000       0.00000000       0.31370504 </v>
    </varray>
   </crystal>
   <varray name="positions" >
    <v>       0.33333333       0.66666667       0.25000000 </v>
    <v>       0.66666667       0.33333333       0.75000000 </v>
   </varray>
  </structure>
  <varray name="primitive_index" >
   <v type="int" >        1 </v>
   <v type="int" >       14 </v>
  </varray>
 </primitive_cell>
 <kpoints>
  <generation param="Gamma">
   <v type="int" name="divisions">      11       12        4 </v>
   <v name="usershift">      0.00000000       0.00000000       0.00000000 </v>
   <v name="genvec1">      0.09090909      -0.00000000       0.00000000 </v>
   <v name="genvec2">      0.00000000       0.08333333       0.00000000 </v>
   <v name="genvec3">      0.00000000       0.00000000       0.25000000 </v>
   <v name="shift">      0.00000000       0.00000000       0.00000000 </v>
  </generation>
  <varray name="kpointlist" >
   <v>       0.00000000       0.00000000       0.00000000 </v>
   <v>       0.09090909       0.00000000       0.00000000 </v>
   <v>       0.18181818       0.00000000       0.00000000 </v>
   <v>       0.27272727       0.00000000       0.00000000 </v>
   <v>       0.36363636       0.00000000       0.00000000 </v>
   <v>       0.45454545       0.00000000       0.00000000 </v>
   <v>       0.00000000       0.08333333       0.00000000 </v>
   <v>       0.09090909       0.08333333       0.00000000 </v>
   <v>       0.18181818       0.08333333       0.00000000 </v>
   <v>       0.27272727       0.08333333       0.00000000 </v>
   <v>       0.36363636       0.08333333       0.00000000 </v>
   <v>       0.45454545       0.08333333       0.00000000 </v>
   <v>       0.00000000       0.16666667       0.00000000 </v>
   <v>       0.09090909       0.16666667       0.00000000 </v>
   <v>       0.18181818       0.16666667       0.00000000 </v>
   <v>       0.27272727       0.16666667       0.00000000 </v>
   <v>       0.36363636       0.16666667       0.00000000 </v>
   <v>       0.45454545       0.16666667       0.00000000 </v>
   <v>       0.00000000       0.25000000       0.00000000 </v>
   <v>       0.09090909       0.25000000       0.00000000 </v>
   <v>       0.18181818       0.25000000       0.00000000 </v>
   <v>       0.27272727       0.25000000       0.00000000 </v>
   <v>       0.36363636       0.25000000       0.00000000 </v>
   <v>       0.45454545       0.25000000       0.00000000 </v>
   <v>       0.00000000       0.33333333       0.00000000 </v>
   <v>       0.09090909       0.33333333       0.00000000 </v>
   <v>       0.18181818       0.33333333       0.00000000 </v>
   <v>       0.27272727       0.33333333       0.00000000 </v>
   <v>       0.36363636       0.33333333       0.00000000 </v>
   <v>       0.45454545       0.33333333       0.00000000 </v>
   <v>       0.00000000       0.41666667       0.00000000 </v>
   <v>       0.09090909       0.41666667       0.00000000 </v>
   <v>       0.18181818       0.41666667       0.00000000 </v>
   <v>       0.27272727       0.41666667       0.00000000 </v>
   <v>       0.36363636       0.41666667       0.00000000 </v>
   <v>       0.45454545       0.41666667       0.00000000 </v>
   <v>       0.00000000       0.50000000       0.00000000 </v>
   <v>       0.09090909       0.50000000       0.00000000 </v>
   <v>       0.18181818       0.50000000       0.00000000 </v>
   <v>       0.27272727       0.50000000       0.00000000 </v>
   <v>       0.36363636       0.50000000       0.00000000 </v>
   <v>       0.45454545       0.50000000       0.00000000 </v>
   <v>       0.00000000       0.00000000       0.25000000 </v>
   <v>       0.09090909       0.00000000       0.25000000 </v>
   <v>       0.18181818       0.00000000       0.25000000 </v>
   <v>       0.27272727       0.00000000       0.25000000 </v>
   <v>       0.36363636       0.00000000       0.25000000 </v>
   <v>       0.45454545       0.00000000       0.25000000 </v>
   <v>       0.00000000       0.08333333       0.25000000 </v>
   <v>       0.09090909       0.08333333       0.25000000 </v>
   <v>       0.18181818       0.08333333       0.25000000 </v>
   <v>       0.27272727       0.08333333       0.25000000 </v>
   <v>       0.36363636       0.08333333       0.25000000 </v>
   <v>       0.45454545       0.08333333       0.25000000 </v>
   <v>       0.00000000       0.16666667       0.25000000 </v>
   <v>       0.09090909       0.16666667       0.25000000 </v>
   <v>       0.18181818       0.16666667       0.25000000 </v>
   <v>       0.27272727       0.16666667       0.25000000 </v>
   <v>       0.36363636       0.16666667       0.25000000 </v>
   <v>       0.45454545       0.16666667       0.25000000 </v>
   <v>       0.00000000       0.25000000       0.25000000 </v>
   <v>       0.09090909       0.25000000       0.25000000 </v>
   <v>       0.18181818       0.25000000       0.25000000 </v>
   <v>       0.27272727       0.25000000       0.25000000 </v>
   <v>       0.36363636       0.25000000       0.25000000 </v>
   <v>       0.45454545       0.25000000       0.25000000 </v>
   <v>       0.00000000       0.33333333       0.25000000 </v>
   <v>       0.09090909       0.33333333       0.25000000 </v>
   <v>       0.18181818       0.33333333       0.25000000 </v>
   <v>       0.27272727       0.33333333       0.25000000 </v>
   <v>       0.36363636       0.33333333       0.25000000 </v>
   <v>       0.45454545       0.33333333       0.25000000 </v>
   <v>       0.00000000       0.41666667       0.25000000 </v>
   <v>       0.09090909       0.41666667       0.25000000 </v>
   <v>       0.18181818       0.41666667       0.25000000 </v>
   <v>       0.27272727       0.41666667       0.25000000 </v>
   <v>       0.36363636       0.41666667       0.25000000 </v>
   <v>       0.45454545       0.41666667       0.25000000 </v>
   <v>       0.00000000       0.50000000       0.25000000 </v>
   <v>       0.09090909       0.50000000       0.25000000 </v>
   <v>       0.18181818       0.50000000       0.25000000 </v>
   <v>       0.27272727       0.50000000       0.25000000 </v>
   <v>       0.36363636       0.50000000       0.25000000 </v>
   <v>       0.45454545       0.50000000       0.25000000 </v>
   <v>       0.00000000       0.00000000       0.50000000 </v>
   <v>       0.09090909       0.00000000       0.50000000 </v>
   <v>       0.18181818       0.00000000       0.50000000 </v>
   <v>       0.27272727       0.00000000       0.50000000 </v>
   <v>       0.36363636       0.00000000       0.50000000 </v>
   <v>       0.45454545       0.00000000       0.50000000 </v>
   <v>       0.00000000       0.08333333       0.50000000 </v>
   <v>       0.09090909       0.08333333       0.50000000 </v>
   <v>       0.18181818       0.08333333       0.50000000 </v>
   <v>       0.27272727       0.08333333       0.50000000 </v>
   <v>       0.36363636       0.08333333       0.50000000 </v>
   <v>       0.45454545       0.08333333       0.50000000 </v>
   <v>       0.00000000       0.16666667       0.50000000 </v>
   <v>       0.09090909       0.16666667       0.50000000 </v>
   <v>       0.18181818       0.16666667       0.50000000 </v>
   <v>       0.27272727       0.16666667       0.50000000 </v>
   <v>       0.36363636       0.16666667       0.50000000 </v>
   <v>       0.45454545       0.16666667       0.50000000 </v>
   <v>       0.00000000       0.25000000       0.50000000 </v>
   <v>       0.09090909       0.25000000       0.50000000 </v>
   <v>       0.18181818       0.25000000       0.50000000 </v>
   <v>       0.27272727       0.25000000       0.50000000 </v>
   <v>       0.36363636       0.25000000       0.50000000 </v>
   <v>       0.45454545       0.25000000       0.50000000 </v>
   <v>       0.00000000       0.33333333       0.50000000 </v>
   <v>       0.09090909       0.33333333       0.50000000 </v>
   <v>       0.18181818       0.33333333       0.50000000 </v>
   <v>       0.27272727       0.33333333       0.50000000 </v>
   <v>       0.36363636       0.33333333       0.50000000 </v>
   <v>       0.45454545       0.33333333       0.50000000 </v>
   <v>       0.00000000       0.41666667       0.50000000 </v>
   <v>       0.09090909       0.41666667       0.50000000 </v>
   <v>       0.18181818       0.41666667       0.50000000 </v>
   <v>       0.27272727       0.41666667       0.50000000 </v>
   <v>       0.36363636       0.41666667       0.50000000 </v>
   <v>       0.45454545       0.41666667       0.50000000 </v>
   <v>       0.00000000       0.50000000       0.50000000 </v>
   <v>       0.09090909       0.50000000       0.50000000 </v>
   <v>       0.18181818       0.50000000       0.50000000 </v>
   <v>       0.27272727       0.50000000       0.50000000 </v>
   <v>       0.36363636       0.50000000       0.50000000 </v>
   <v>       0.45454545       0.50000000       0.50000000 </v>
  </varray>
  <varray name="weights" >
   <v>       0.00189394 </v>
   <v>       0.00378788 </v>
   <v>       0.00378788 </v>
   <v>       0.00378788 </v>
   <v>       0.00378788 </v>
   <v>       0.00378788 </v>
   <v>       0.00378788 </v>
   <v>       0.00757576 </v>
   <v>       0.00757576 </v>
   <v>       0.00757576 </v>
   <v>       0.00757576 </v>
   <v>       0.00757576 </v>
   <v>       0.00378788 </v>
   <v>       0.00757576 </v>
   <v>       0.00757576 </v>
   <v>       0.00757576 </v>
   <v>       0.00757576 </v>
   <v>       0.00757576 </v>
   <v>       0.00378788 </v>
   <v>       0.00757576 </v>
   <v>       0.00757576 </v>
   <v>       0.00757576 </v>
   <v>       0.00757576 </v>
   <v>       0.00757576 </v>
   <v>       0.00378788 </v>
   <v>       0.00757576 </v>
   <v>       0.00757576 </v>
   <v>       0.00757576 </v>
   <v>       0.00757576 </v>
   <v>       0.00757576 </v>
   <v>       0.00378788 </v>
   <v>       0.00757576 </v>
   <v>       0.00757576 </v>
   <v>       0.00757576 </v>
   <v>       0.00757576 </v>
   <v>       0.00757576 </v>
   <v>       0.00189394 </v>
   <v>       0.00378788 </v>
   <v>       0.00378788 </v>
   <v>       0.00378788 </v>
   <v>       0.00378788 </v>
   <v>       0.00378788 </v>
   <v>       0.00378788 </v>
   <v>       0.00757576 </v>
   <v>       0.00757576 </v>
   <v>       0.00757576 </v>
   <v>       0.00757576 </v>
   <v>       0.00757576 </v>
   <v>       0.00757576 </v>
   <v>       0.01515152 </v>
   <v>       0.01515152 </v>
   <v>       0.01515152 </v>
   <v>       0.01515152 </v>
   <v>       0.01515152 </v>
   <v>       0.00757576 </v>
   <v>       0.01515152 </v>
   <v>       0.01515152 </v>
   <v>       0.01515152 </v>
   <v>       0.01515152 </v>
   <v>       0.01515152 </v>
   <v>       0.00757576 </v>
   <v>       0.01515152 </v>
   <v>       0.01515152 </v>
   <v>       0.01515152 </v>
   <v>       0.01515152 </v>
   <v>       0.01515152 </v>
   <v>       0.00757576 </v>
   <v>       0.01515152 </v>
   <v>       0.01515152 </v>
   <v>       0.01515152 </v>
   <v>       0.01515152 </v>
   <v>       0.01515152 </v>
   <v>       0.00757576 </v>
   <v>       0.01515152 </v>
   <v>       0.01515152 </v>
   <v>       0.01515152 </v>
   <v>       0.01515152 </v>
   <v>       0.01515152 </v>
   <v>       0.00378788 </v>
   <v>       0.00757576 </v>
   <v>       0.00757576 </v>
   <v>       0.00757576 </v>
   <v>       0.00757576 </v>
   <v>       0.00757576 </v>
   <v>       0.00189394 </v>
   <v>       0.00378788 </v>
   <v>       0.00378788 </v>
   <v>       0.00378788 </v>
   <v>       0.00378788 </v>
   <v>       0.00378788 </v>
   <v>       0.00378788 </v>
   <v>       0.00757576 </v>
   <v>       0.00757576 </v>
   <v>       0.00757576 </v>
   <v>       0.00757576 </v>
   <v>       0.00757576 </v>
   <v>       0.00378788 </v>
   <v>       0.00757576 </v>
   <v>       0.00757576 </v>
   <v>       0.00757576 </v>
   <v>       0.00757576 </v>
   <v>       0.00757576 </v>
   <v>       0.00378788 </v>
   <v>       0.00757576 </v>
   <v>       0.00757576 </v>
   <v>       0.00757576 </v>
   <v>       0.00757576 </v>
   <v>       0.00757576 </v>
   <v>       0.00378788 </v>
   <v>       0.00757576 </v>
   <v>       0.00757576 </v>
   <v>       0.00757576 </v>
   <v>       0.00757576 </v>
   <v>       0.00757576 </v>
   <v>       0.00378788 </v>
   <v>       0.00757576 </v>
   <v>       0.00757576 </v>
   <v>       0.00757576 </v>
   <v>       0.00757576 </v>
   <v>       0.00757576 </v>
   <v>       0.00189394 </v>
   <v>       0.00378788 </v>
   <v>       0.00378788 </v>
   <v>       0.00378788 </v>
   <v>       0.00378788 </v>
   <v>       0.00378788 </v>
  </varray>
 </kpoints>
 <parameters>
  <separator name="general" >
   <i type="string" name="SYSTEM">unknown system</i>
   <i type="logical" name="LCOMPAT"> F  </i>
  </separator>
  <separator name="electronic" >
   <i type="string" name="PREC">accura</i>
   <i name="ENMAX">    900.00000000</i>
   <i name="ENAUG">   1514.19200000</i>
   <i name="EDIFF">      0.00000010</i>
   <i type="int" name="IALGO">    38</i>
   <i type="int" name="IWAVPR">    10</i>
   <i type="int" name="NBANDS">    40</i>
   <i type="int" name="NBANDSLOW">    -1</i>
   <i type="int" name="NBANDSHIGH">    -1</i>
   <i name="NELECT">     48.00000000</i>
   <i type="int" name="TURBO">     0</i>
   <i type="int" name="IRESTART">     0</i>
   <i type="int" name="NREBOOT">     0</i>
   <i type="int" name="NMIN">     0</i>
   <i name="EREF">      0.00000000</i>
   <separator name="electronic smearing" >
    <i type="int" name="ISMEAR">     0</i>
    <i name="SIGMA">      0.01000000</i>
    <i name="KSPACING">      0.50000000</i>
    <i type="logical" name="KGAMMA"> T  </i>
    <i type="logical" name="KBLOWUP"> T  </i>
   </separator>
   <separator name="electronic projectors" >
    <i type="logical" name="LREAL"> F  </i>
    <v name="ROPT">      0.00000000</v>
    <i type="int" name="LMAXPAW">  -100</i>
    <i type="int" name="LMAXMIX">     2</i>
    <i type="logical" name="NLSPLINE"> F  </i>
   </separator>
   <separator name="electronic startup" >
    <i type="int" name="ISTART">     0</i>
    <i type="int" name="ICHARG">     2</i>
    <i type="int" name="INIWAV">     1</i>
   </separator>
   <separator name="electronic spin" >
    <i type="int" name="ISPIN">     1</i>
    <i type="logical" name="LNONCOLLINEAR"> F  </i>
    <v name="MAGMOM">      1.00000000      1.00000000      1.00000000      1.00000000      1.00000000      1.00000000      1.00000000      1.00000000      1.00000000      1.00000000      1.00000000      1.00000000      1.00000000      1.00000000      1.00000000      1.00000000      1.00000000      1.00000000      1.00000000      1.00000000
      1.00000000      1.00000000      1.00000000      1.00000000</v>
    <i name="NUPDOWN">     -1.00000000</i>
    <i type="logical" name="LSORBIT"> F  </i>
    <v name="SAXIS">      0.00000000      0.00000000      1.00000000</v>
    <i type="logical" name="LSPIRAL"> F  </i>
    <v name="QSPIRAL">      0.00000000      0.00000000      0.00000000</v>
    <i type="logical" name="LZEROZ"> F  </i>
   </separator>
   <separator name="electronic exchange-correlation" >
    <i type="logical" name="LASPH"> F  </i>
   </separator>
   <separator name="electronic convergence" >
    <i type="int" name="NELM">    60</i>
    <i type="int" name="NELMDL">    -5</i>
    <i type="int" name="NELMIN">     2</i>
    <i name="ENINI">    900.00000000</i>
    <separator name="electronic convergence detail" >
     <i type="logical" name="LDIAG"> T  </i>
     <i type="logical" name="LSUBROT"> F  </i>
     <i name="WEIMIN">      0.00000000</i>
     <i name="EBREAK">      0.00000000</i>
     <i name="DEPER">      0.30000000</i>
     <i type="int" name="NRMM">     4</i>
     <i name="TIME">      0.40000000</i>
    </separator>
   </separator>
   <separator name="electronic mixer" >
    <i name="AMIX">      0.40000000</i>
    <i name="BMIX">      1.00000000</i>
    <i name="AMIN">      0.10000000</i>
    <i name="AMIX_MAG">      1.60000000</i>
    <i name="BMIX_MAG">      1.00000000</i>
    <separator name="electronic mixer details" >
     <i type="int" name="IMIX">     4</i>
     <i type="logical" name="MIXFIRST"> F  </i>
     <i type="int" name="MAXMIX">   -45</i>
     <i name="WC">    100.00000000</i>
     <i type="int" name="INIMIX">     1</i>
     <i type="int" name="MIXPRE">     1</i>
     <i type="int" name="MREMOVE">     5</i>
    </separator>
   </separator>
   <separator name="electronic dipolcorrection" >
    <i type="logical" name="LDIPOL"> F  </i>
    <i type="logical" name="LMONO"> F  </i>
    <i type="int" name="IDIPOL">     0</i>
    <i name="EPSILON">      1.00000000</i>
    <v name="DIPOL">   -100.00000000   -100.00000000   -100.00000000</v>
    <i name="EFIELD">      0.00000000</i>
    <i type="logical" name="LVACPOTAV"> F  </i>
   </separator>
  </separator>
  <separator name="grids" >
   <i type="int" name="NGX">    40</i>
   <i type="int" name="NGY">    36</i>
   <i type="int" name="NGZ">    96</i>
   <i type="int" name="NGXF">    80</i>
   <i type="int" name="NGYF">    72</i>
   <i type="int" name="NGZF">   192</i>
   <i type="logical" name="ADDGRID"> F  </i>
  </separator>
  <separator name="ionic" >
   <i type="int" name="NSW">     0</i>
   <i type="int" name="IBRION">    -1</i>
   <i type="int" name="MDALGO">     0</i>
   <i type="int" name="ISIF">     2</i>
   <i name="PSTRESS">      0.00000000</i>
   <i name="EDIFFG">      0.00000100</i>
   <i type="int" name="NFREE">     0</i>
   <i name="POTIM">      0.50000000</i>
   <i name="SMASS">     -3.00000000</i>
   <i name="SCALEE">      1.00000000</i>
  </separator>
  <separator name="ionic md" >
   <i name="TEBEG">      0.00010000</i>
   <i name="TEEND">      0.00010000</i>
   <i type="int" name="NBLOCK">     1</i>
   <i type="int" name="KBLOCK">     1</i>
   <i type="int" name="NPACO">   256</i>
   <i name="APACO">     10.00000000</i>
  </separator>
  <separator name="symmetry" >
   <i type="int" name="ISYM">     2</i>
   <i name="SYMPREC">      0.00001000</i>
  </separator>
  <separator name="dos" >
   <i type="int" name="LORBIT">     0</i>
   <v name="RWIGS">     -1.00000000</v>
   <i type="int" name="NEDOS">   301</i>
   <i name="EMIN">     10.00000000</i>
   <i name="EMAX">    -10.00000000</i>
   <i name="EFERMI">      0.00000000</i>
  </separator>
  <separator name="writing" >
   <i type="int" name="NWRITE">     2</i>
   <i type="logical" name="LWAVE"> F  </i>
   <i type="logical" name="LDOWNSAMPLE"> F  </i>
   <i type="logical" name="LCHARG"> F  </i>
   <i type="logical" name="LPARD"> F  </i>
   <i type="logical" name="LVTOT"> F  </i>
   <i type="logical" name="LVHAR"> F  </i>
   <i type="logical" name="LELF"> F  </i>
   <i type="logical" name="LOPTICS"> F  </i>
   <v name="STM">      0.00000000      0.00000000      0.00000000      0.00000000      0.00000000      0.00000000      0.00000000</v>
  </separator>
  <separator name="performance" >
   <i type="int" name="NPAR">     4</i>
   <i type="int" name="NSIM">     4</i>
   <i type="int" name="NBLK">    -1</i>
   <i type="logical" name="LPLANE"> T  </i>
   <i type="logical" name="LSCALAPACK"> T  </i>
   <i type="logical" name="LSCAAWARE"> F  </i>
   <i type="logical" name="LSCALU"> F  </i>
   <i type="logical" name="LASYNC"> F  </i>
   <i type="logical" name="LORBITALREAL"> F  </i>
  </separator>
  <separator name="miscellaneous" >
   <i type="int" name="IDIOT">     3</i>
   <i type="int" name="PHON_NSTRUCT">    -1</i>
   <i type="logical" name="LMUSIC"> F  </i>
   <v name="POMASS">      4.00000000</v>
   <v name="DARWINR">      0.00000000</v>
   <v name="DARWINV">      1.00000000</v>
   <i type="logical" name="LCORR"> T  </i>
  </separator>
  <i type="logical" name="GGA_COMPAT"> T  </i>
  <i type="logical" name="LBERRY"> F  </i>
  <i type="int" name="ICORELEVEL">     0</i>
  <i type="logical" name="LDAU"> F  </i>
  <i type="int" name="I_CONSTRAINED_M">     0</i>
  <separator name="electronic exchange-correlation" >
   <i type="string" name="GGA    ">PE</i>
   <i type="string" name="XC_C">1</i>
   <i type="int" name="VOSKOWN">     0</i>
   <i type="logical" name="LHFCALC"> F  </i>
   <i type="string" name="PRECFOCK"></i>
   <i type="logical" name="LSYMGRAD"> F  </i>
   <i type="logical" name="LHFONE"> F  </i>
   <i type="logical" name="LRHFCALC"> F  </i>
   <i type="logical" name="LTHOMAS"> F  </i>
   <i type="logical" name="LMODELHF"> F  </i>
   <i type="logical" name="LFOCKACE"> F  </i>
   <i name="ENCUT4O">     -1.00000000</i>
   <i type="int" name="EXXOEP">     0</i>
   <i type="int" name="FOURORBIT">     0</i>
   <i name="AEXX">      0.00000000</i>
   <i name="HFALPHA">      0.00000000</i>
   <i name="MCALPHA">      0.00000000</i>
   <i name="ALDAX">      1.00000000</i>
   <i name="AGGAX">      1.00000000</i>
   <i name="AMGGAX">      1.00000000</i>
   <i name="ALDAC">      1.00000000</i>
   <i name="AGGAC">      1.00000000</i>
   <i name="AMGGAC">      1.00000000</i>
   <i type="int" name="NKREDX">     1</i>
   <i type="int" name="NKREDY">     1</i>
   <i type="int" name="NKREDZ">     1</i>
   <i type="logical" name="SHIFTRED"> F  </i>
   <i type="logical" name="ODDONLY"> F  </i>
   <i type="logical" name="EVENONLY"> F  </i>
   <i type="int" name="LMAXFOCK">     0</i>
   <i type="int" name="NMAXFOCKAE">     0</i>
   <i type="logical" name="LFOCKAEDFT"> F  </i>
   <i name="HFSCREEN">      0.00000000</i>
   <i name="HFSCREENC">      0.00000000</i>
   <i type="int" name="NBANDSGWLOW">     0</i>
  </separator>
  <separator name="vdW DFT" >
   <i type="logical" name="LUSE_VDW"> F  </i>
   <i type="int" name="IVDW_NL">    -1</i>
   <i type="logical" name="LSPIN_VDW"> F  </i>
   <i name="ZAB_VDW">     -0.84910000</i>
   <i name="GAMMA_VDW">      1.39626340</i>
   <i name="ALPHA_VDW">      0.00000000</i>
   <i name="PARAM1">      0.12340000</i>
   <i name="PARAM2">      1.00000000</i>
   <i name="BPARAM">      6.30000000</i>
   <i name="CPARAM">      0.00930000</i>
  </separator>
  <separator name="model GW" >
   <i type="int" name="MODEL_GW">     0</i>
   <i name="MODEL_EPS0">      3.16308025</i>
   <i name="MODEL_ALPHA">      1.00000000</i>
  </separator>
  <separator name="linear response parameters" >
   <i type="logical" name="LEPSILON"> F  </i>
   <i type="logical" name="LRPA"> F  </i>
   <i type="logical" name="LNABLA"> F  </i>
   <i type="logical" name="LVEL"> F  </i>
   <i name="CSHIFT">      0.10000000</i>
   <i name="OMEGAMAX">     -1.00000000</i>
   <i name="DEG_THRESHOLD">      0.00200000</i>
   <i name="RTIME">     -0.10000000</i>
   <i name="WPLASMAI">      0.00000000</i>
   <v name="DFIELD">      0.00000000      0.00000000      0.00000000</v>
   <v name="WPLASMA">      0.00000000      0.00000000      0.00000000      0.00000000      0.00000000      0.00000000      0.00000000      0.00000000      0.00000000</v>
  </separator>
  <separator name="orbital magnetization" >
   <i type="logical" name="NUCIND"> F  </i>
   <v name="MAGPOS">      0.00000000      0.00000000      0.00000000</v>
   <i type="logical" name="LNICSALL"> T  </i>
   <i type="logical" name="ORBITALMAG"> F  </i>
   <i type="logical" name="LMAGBLOCH"> F  </i>
   <i type="logical" name="LCHIMAG"> F  </i>
   <i type="logical" name="LGAUGE"> T  </i>
   <i type="int" name="MAGATOM">     0</i>
   <v name="MAGDIPOL">      0.00000000      0.00000000      0.00000000</v>
   <v name="AVECCONST">      0.00000000      0.00000000      0.00000000</v>
  </separator>
  <separator name="response functions" >
   <i type="logical" name="LALL_IN_ONE"> F  </i>
   <i type="int" name="IALL_IN_ONE">    -1</i>
   <i type="int" name="NBANDS_WAVE">    -1</i>
   <i type="logical" name="LFINITE_TEMPERATURE"> F  </i>
   <i type="logical" name="LADDER"> F  </i>
   <i type="logical" name="LRPAFORCE"> F  </i>
   <i type="logical" name="LFXC"> F  </i>
   <i type="logical" name="LHARTREE"> T  </i>
   <i type="int" name="IBSE">     0</i>
   <v type="int" name="KPOINT">    -1     0     0     0</v>
   <i type="logical" name="LTCTC"> F  </i>
   <i type="logical" name="LTCTE"> F  </i>
   <i type="logical" name="LTETE"> F  </i>
   <i type="logical" name="LTRIPLET"> F  </i>
   <i type="logical" name="LFXCEPS"> F  </i>
   <i type="logical" name="LFXHEG"> F  </i>
   <i type="int" name="NATURALO">     2</i>
   <i type="logical" name="LHOLEGF"> F  </i>
   <i type="logical" name="L2ORDER"> F  </i>
   <i type="logical" name="LDMP1"> F  </i>
   <i type="logical" name="LMP2LT"> F  </i>
   <i type="logical" name="LSMP2LT"> F  </i>
   <i type="logical" name="LGWLF"> F  </i>
   <i name="ENCUTGW">     -1.60000002</i>
   <i name="ENCUTGWSOFT">     -1.60000002</i>
   <i name="ENCUTLF">     -1.00000000</i>
   <i type="logical" name="ESF_SPLINES"> F  </i>
   <i name="ESF_CONV">      0.01000000</i>
   <i type="int" name="ESF_NINTER">    15</i>
   <i type="int" name="LMAXMP2">    -1</i>
   <i name="SCISSOR">      0.00000000</i>
   <i type="int" name="NOMEGA">     0</i>
   <i type="int" name="NOMEGAR">     0</i>
   <i type="int" name="NBANDSGW">    -1</i>
   <i type="int" name="NBANDSO">    -1</i>
   <i type="int" name="NBANDSV">    -1</i>
   <i type="int" name="NELMGW">     1</i>
   <i type="int" name="NELMHF">     1</i>
   <i type="int" name="DIM">     3</i>
   <i type="int" name="IESPILON">     4</i>
   <i type="int" name="ANTIRES">     0</i>
   <i name="OMEGAMAX">    -30.00000000</i>
   <i name="OMEGAMIN">    -30.00000000</i>
   <i name="OMEGATL">   -200.00000000</i>
   <i type="int" name="OMEGAGRID">     0</i>
   <i name="CSHIFT">     -0.10000000</i>
   <i type="logical" name="LSELFENERGY"> F  </i>
   <i type="logical" name="LSPECTRAL"> F  </i>
   <i type="logical" name="LSPECTRALGW"> F  </i>
   <i type="logical" name="LSINGLES"> F  </i>
   <i type="logical" name="LFERMIGW"> F  </i>
   <i type="logical" name="ODDONLYGW"> F  </i>
   <i type="logical" name="EVENONLYGW"> F  </i>
   <i type="int" name="NKREDLFX">     1</i>
   <i type="int" name="NKREDLFY">     1</i>
   <i type="int" name="NKREDLFZ">     1</i>
   <i type="int" name="MAXMEM">  2800</i>
   <i type="int" name="TELESCOPE">     0</i>
   <i type="int" name="NTAUPAR">    -1</i>
   <i type="int" name="NOMEGAPAR">    -1</i>
   <i name="DAMP_NEWTON">      0.80000001</i>
   <i name="LAMBDA">      1.00000000</i>
  </separator>
  <separator name="External order field" >
   <i name="OFIELD_KAPPA">      0.00000000</i>
   <v name="OFIELD_K">      0.00000000      0.00000000      0.00000000</v>
   <i name="OFIELD_Q6_NEAR">      0.00000000</i>
   <i name="OFIELD_Q6_FAR">      0.00000000</i>
   <i name="OFIELD_A">      0.00000000</i>
  </separator>
  <separator name="optional k-points parameters" >
   <i type="int" name="KPOINTS_OPT_MODE">     1</i>
   <i type="logical" name="LKPOINTS_OPT"> F  </i>
  </separator>
 </parameters>
 <atominfo>
  <atoms>      24 </atoms>
  <types>       1 </types>
  <array name="atoms" >
   <dimension dim="1">ion</dimension>
   <field type="string">element</field>
   <field type="int">atomtype</field>
   <set>
    <rc><c>He</c><c>   1</c></rc>
    <rc><c>He</c><c>   1</c></rc>
    <rc><c>He</c><c>   1</c></rc>
    <rc><c>He</c><c>   1</c></rc>
    <rc><c>He</c><c>   1</c></rc>
    <rc><c>He</c><c>   1</c></rc>
    <rc><c>He</c><c>   1</c></rc>
    <rc><c>He</c><c>   1</c></rc>
    <rc><c>He</c><c>   1</c></rc>
    <rc><c>He</c><c>   1</c></rc>
    <rc><c>He</c><c>   1</c></rc>
    <rc><c>He</c><c>   1</c></rc>
    <rc><c>He</c><c>   1</c></rc>
    <rc><c>He</c><c>   1</c></rc>
    <rc><c>He</c><c>   1</c></rc>
    <rc><c>He</c><c>   1</c></rc>
    <rc><c>He</c><c>   1</c></rc>
    <rc><c>He</c><c>   1</c></rc>
    <rc><c>He</c><c>   1</c></rc>
    <rc><c>He</c><c>   1</c></rc>
    <rc><c>He</c><c>   1</c></rc>
    <rc><c>He</c><c>   1</c></rc>
    <rc><c>He</c><c>   1</c></rc>
    <rc><c>He</c><c>   1</c></rc>
   </set>
  </array>
  <array name="atomtypes" >
   <dimension dim="1">type</dimension>
   <field type="int">atomspertype</field>
   <field type="string">element</field>
   <field>mass</field>
   <field>valence</field>
   <field type="string">pseudopotential</field>
   <set>
    <rc><c>  24</c><c>He</c><c>      4.00000000</c><c>      2.00000000</c><c>  PAW_PBE He_GW 23Feb2015               </c></rc>
   </set>
  </array>
 </atominfo>
 <structure name="initialpos" >
  <crystal>
   <varray name="basis" >
    <v>       1.95429405       3.38493658       0.00000000 </v>
    <v>      -2.93144107       1.69246829       0.00000000 </v>
    <v>       0.00000000       0.00000000       9.56312345 </v>
   </varray>
   <i name="volume">    126.52321019 </i>
   <varray name="rec_basis" >
    <v>       0.12792343       0.22156988      -0.00000000 </v>
    <v>      -0.25584686       0.14771325       0.00000000 </v>
    <v>       0.00000000      -0.00000000       0.10456835 </v>
   </varray>
  </crystal>
  <varray name="positions" >
   <v>       0.25000000       0.16666667       0.08333333 </v>
   <v>       0.50000000       0.66666667       0.08333333 </v>
   <v>       0.75000000       0.16666667       0.08333333 </v>
   <v>       0.00000000       0.66666667       0.08333333 </v>
   <v>       0.25000000       0.16666667       0.41666667 </v>
   <v>       0.50000000       0.66666667       0.41666667 </v>
   <v>       0.75000000       0.16666667       0.41666667 </v>
   <v>       0.00000000       0.66666667       0.41666667 </v>
   <v>       0.25000000       0.16666667       0.75000000 </v>
   <v>       0.50000000       0.66666667       0.75000000 </v>
   <v>       0.75000000       0.16666667       0.75000000 </v>
   <v>       0.00000000       0.66666667       0.75000000 </v>
   <v>       0.25000000       0.83333333       0.25000000 </v>
   <v>       0.50000000       0.33333333       0.25000000 </v>
   <v>       0.75000000       0.83333333       0.25000000 </v>
   <v>       0.00000000       0.33333333       0.25000000 </v>
   <v>       0.25000000       0.83333333       0.58333333 </v>
   <v>       0.50000000       0.33333333       0.58333333 </v>
   <v>       0.75000000       0.83333333       0.58333333 </v>
   <v>       0.00000000       0.33333333       0.58333333 </v>
   <v>       0.25000000       0.83333333       0.91666667 </v>
   <v>       0.50000000       0.33333333       0.91666667 </v>
   <v>       0.75000000       0.83333333       0.91666667 </v>
   <v>       0.00000000       0.33333333       0.91666667 </v>
  </varray>
 </structure>
 <calculation>
  <scstep>
   <time name="dav">    1.33    1.33</time>
   <time name="total">    1.37    1.37</time>
   <energy>
    <i name="alphaZ">     46.16035745 </i>
    <i name="ewald">  -1147.00802993 </i>
    <i name="hartreedc">   -325.55446036 </i>
    <i name="XCdc">    188.77270873 </i>
    <i name="pawpsdc">   1096.62050802 </i>
    <i name="pawaedc">  -1132.77759231 </i>
    <i name="eentropy">     -0.00000000 </i>
    <i name="bandstr">   -326.29793596 </i>
    <i name="atom">   1889.38125292 </i>
    <i name="e_fr_energy">    289.29680855 </i>
    <i name="e_wo_entrp">    289.29680855 </i>
    <i name="e_0_energy">    289.29680855 </i>
   </energy>
  </scstep>
  <scstep>
   <time name="dav">    1.41    1.42</time>
   <time name="total">    1.41    1.42</time>
   <energy>
    <i name="e_fr_energy">     25.05391391 </i>
    <i name="e_wo_entrp">     25.05391391 </i>
    <i name="e_0_energy">     25.05391391 </i>
   </energy>
  </scstep>
  <scstep>
   <time name="dav">    1.59    1.59</time>
   <time name="total">    1.59    1.59</time>
   <energy>
    <i name="e_fr_energy">      8.36692094 </i>
    <i name="e_wo_entrp">      8.36692094 </i>
    <i name="e_0_energy">      8.36692094 </i>
   </energy>
  </scstep>
  <scstep>
   <time name="dav">    1.94    1.94</time>
   <time name="total">    1.94    1.94</time>
   <energy>
    <i name="e_fr_energy">      7.81258677 </i>
    <i name="e_wo_entrp">      7.81258677 </i>
    <i name="e_0_energy">      7.81258677 </i>
   </energy>
  </scstep>
  <scstep>
   <time name="dav">    2.09    2.10</time>
   <time name="total">    2.17    2.17</time>
   <energy>
    <i name="e_fr_energy">      7.79455428 </i>
    <i name="e_wo_entrp">      7.79455428 </i>
    <i name="e_0_energy">      7.79455428 </i>
   </energy>
  </scstep>
  <scstep>
   <time name="dav">    2.12    2.12</time>
   <time name="total">    2.25    2.25</time>
   <energy>
    <i name="e_fr_energy">      7.85436867 </i>
    <i name="e_wo_entrp">      7.85436867 </i>
    <i name="e_0_energy">      7.85436867 </i>
   </energy>
  </scstep>
  <scstep>
   <time name="dav">    2.15    2.15</time>
   <time name="total">    2.29    2.29</time>
   <energy>
    <i name="e_fr_energy">      7.86887076 </i>
    <i name="e_wo_entrp">      7.86887076 </i>
    <i name="e_0_energy">      7.86887076 </i>
   </energy>
  </scstep>
  <scstep>
   <time name="dav">    2.02    2.02</time>
   <time name="total">    2.12    2.12</time>
   <energy>
    <i name="e_fr_energy">      7.86787505 </i>
    <i name="e_wo_entrp">      7.86787505 </i>
    <i name="e_0_energy">      7.86787505 </i>
   </energy>
  </scstep>
  <scstep>
   <time name="dav">    1.99    1.99</time>
   <time name="total">    2.09    2.09</time>
   <energy>
    <i name="e_fr_energy">      7.86751374 </i>
    <i name="e_wo_entrp">      7.86751374 </i>
    <i name="e_0_energy">      7.86751374 </i>
   </energy>
  </scstep>
  <scstep>
   <time name="dav">    2.15    2.15</time>
   <time name="total">    2.28    2.29</time>
   <energy>
    <i name="e_fr_energy">      7.86751310 </i>
    <i name="e_wo_entrp">      7.86751310 </i>
    <i name="e_0_energy">      7.86751310 </i>
   </energy>
  </scstep>
  <scstep>
   <time name="dav">    1.91    1.91</time>
   <time name="total">    2.01    2.01</time>
   <energy>
    <i name="e_fr_energy">      7.86751270 </i>
    <i name="e_wo_entrp">      7.86751270 </i>
    <i name="e_0_energy">      7.86751270 </i>
   </energy>
  </scstep>
  <scstep>
   <time name="dav">    1.11    1.11</time>
   <time name="total">    1.20    1.21</time>
   <energy>
    <i name="e_fr_energy">      7.86751290 </i>
    <i name="e_wo_entrp">      7.86751290 </i>
    <i name="e_0_energy">      7.86751290 </i>
   </energy>
  </scstep>
  <scstep>
   <time name="dav">    1.16    1.16</time>
   <time name="total">    1.19    1.20</time>
   <energy>
    <i name="alphaZ">     46.16035745 </i>
    <i name="ewald">  -1147.00802993 </i>
    <i name="hartreedc">   -338.63993141 </i>
    <i name="XCdc">    190.97728955 </i>
    <i name="pawpsdc">   1147.02904958 </i>
    <i name="pawaedc">  -1184.55649708 </i>
    <i name="eentropy">     -0.00000000 </i>
    <i name="bandstr">   -595.47597818 </i>
    <i name="atom">   1889.38125292 </i>
    <i name="e_fr_energy">      7.86751290 </i>
    <i name="e_wo_entrp">      7.86751290 </i>
    <i name="e_0_energy">      7.86751290 </i>
   </energy>
  </scstep>
  <structure>
   <crystal>
    <varray name="basis" >
     <v>       1.95429405       3.38493658       0.00000000 </v>
     <v>      -2.93144107       1.69246829       0.00000000 </v>
     <v>       0.00000000       0.00000000       9.56312345 </v>
    </varray>
    <i name="volume">    126.52321019 </i>
    <varray name="rec_basis" >
     <v>       0.12792343       0.22156988      -0.00000000 </v>
     <v>      -0.25584686       0.14771325       0.00000000 </v>
     <v>       0.00000000      -0.00000000       0.10456835 </v>
    </varray>
   </crystal>
   <varray name="positions" >
    <v>       0.25000000       0.16666667       0.08333333 </v>
    <v>       0.50000000       0.66666667       0.08333333 </v>
    <v>       0.75000000       0.16666667       0.08333333 </v>
    <v>       0.00000000       0.66666667       0.08333333 </v>
    <v>       0.25000000       0.16666667       0.41666667 </v>
    <v>       0.50000000       0.66666667       0.41666667 </v>
    <v>       0.75000000       0.16666667       0.41666667 </v>
    <v>       0.00000000       0.66666667       0.41666667 </v>
    <v>       0.25000000       0.16666667       0.75000000 </v>
    <v>       0.50000000       0.66666667       0.75000000 </v>
    <v>       0.75000000       0.16666667       0.75000000 </v>
    <v>       0.00000000       0.66666667       0.75000000 </v>
    <v>       0.25000000       0.83333333       0.25000000 </v>
    <v>       0.50000000       0.33333333       0.25000000 </v>
    <v>       0.75000000       0.83333333       0.25000000 </v>
    <v>       0.00000000       0.33333333       0.25000000 </v>
    <v>       0.25000000       0.83333333       0.58333333 </v>
    <v>       0.50000000       0.33333333       0.58333333 </v>
    <v>       0.75000000       0.83333333       0.58333333 </v>
    <v>       0.00000000       0.33333333       0.58333333 </v>
    <v>       0.25000000       0.83333333       0.91666667 </v>
    <v>       0.50000000       0.33333333       0.91666667 </v>
    <v>       0.75000000       0.83333333       0.91666667 </v>
    <v>       0.00000000       0.33333333       0.91666667 </v>
   </varray>
  </structure>
  <varray name="forces" >
   <v>       0.00000044      -0.00000025       0.00000000 </v>
   <v>       0.00000044      -0.00000025       0.00000000 </v>
   <v>       0.00000044      -0.00000025      -0.00000000 </v>
   <v>       0.00000044      -0.00000025      -0.00000000 </v>
   <v>       0.00000044      -0.00000025      -0.00000000 </v>
   <v>       0.00000044      -0.00000025       0.00000000 </v>
   <v>       0.00000044      -0.00000025      -0.00000000 </v>
   <v>       0.00000044      -0.00000025      -0.00000000 </v>
   <v>       0.00000044      -0.00000025       0.00000000 </v>
   <v>       0.00000044      -0.00000025      -0.00000000 </v>
   <v>       0.00000044      -0.00000025      -0.00000000 </v>
   <v>       0.00000044      -0.00000025       0.00000000 </v>
   <v>      -0.00000044       0.00000025      -0.00000000 </v>
   <v>      -0.00000044       0.00000025       0.00000000 </v>
   <v>      -0.00000044       0.00000025       0.00000000 </v>
   <v>      -0.00000044       0.00000025       0.00000000 </v>
   <v>      -0.00000044       0.00000025       0.00000000 </v>
   <v>      -0.00000044       0.00000025       0.00000000 </v>
   <v>      -0.00000044       0.00000025      -0.00000000 </v>
   <v>      -0.00000044       0.00000025       0.00000000 </v>
   <v>      -0.00000044       0.00000025      -0.00000000 </v>
   <v>      -0.00000044       0.00000025      -0.00000000 </v>
   <v>      -0.00000044       0.00000025       0.00000000 </v>
   <v>      -0.00000044       0.00000025       0.00000000 </v>
  </varray>
  <varray name="stress" >
   <v>     276.97365467      -0.02566263      -0.00000000 </v>
   <v>      -0.02566263     276.94402201       0.00000000 </v>
   <v>      -0.00000000       0.00000000     276.54222565 </v>
  </varray>
  <energy>
   <i name="e_fr_energy">      7.27422441 </i>
   <i name="e_wo_entrp">      7.27422441 </i>
   <i name="e_0_energy">      7.27422441 </i>
  </energy>
  <time name="totalsc">   26.13   26.18</time>
  <eigenvalues>
   <array>
    <dimension dim="1">band</dimension>
    <dimension dim="2">kpoint</dimension>
    <dimension dim="3">spin</dimension>
    <field>eigene</field>
    <field>occ</field>
    <set>
     <set comment="spin 1">
      <set comment="kpoint 1">
       <r>  -17.9202    1.0000 </r>
       <r>  -16.8033    1.0000 </r>
       <r>  -16.8033    1.0000 </r>
       <r>  -14.0005    1.0000 </r>
       <r>  -14.0005    1.0000 </r>
       <r>  -12.5142    1.0000 </r>
       <r>  -12.5142    1.0000 </r>
       <r>  -12.1783    1.0000 </r>
       <r>  -12.0802    1.0000 </r>
       <r>  -11.9368    1.0000 </r>
       <r>  -11.9368    1.0000 </r>
       <r>  -11.9368    1.0000 </r>
       <r>  -11.9368    1.0000 </r>
       <r>  -11.7150    1.0000 </r>
       <r>  -11.7150    1.0000 </r>
       <r>  -10.8574    1.0000 </r>
       <r>  -10.8574    1.0000 </r>
       <r>  -10.7675    1.0000 </r>
       <r>  -10.7675    1.0000 </r>
       <r>  -10.7675    1.0000 </r>
       <r>  -10.7675    1.0000 </r>
       <r>  -10.4900    1.0000 </r>
       <r>  -10.1916    1.0000 </r>
       <r>  -10.1916    1.0000 </r>
       <r>    8.1284    0.0000 </r>
       <r>    9.2517    0.0000 </r>
       <r>    9.2517    0.0000 </r>
       <r>    9.4204    0.0000 </r>
       <r>   11.5343    0.0000 </r>
       <r>   11.5343    0.0000 </r>
       <r>   11.5917    0.0000 </r>
       <r>   11.5917    0.0000 </r>
       <r>   11.6692    0.0000 </r>
       <r>   11.6692    0.0000 </r>
       <r>   11.8469    0.0000 </r>
       <r>   11.8469    0.0000 </r>
       <r>   11.8469    0.0000 </r>
       <r>   11.8469    0.0000 </r>
       <r>   12.6883    0.0000 </r>
       <r>   12.6883    0.0000 </r>
      </set>
      <set comment="kpoint 2">
       <r>  -17.8633    1.0000 </r>
       <r>  -16.7493    1.0000 </r>
       <r>  -16.7493    1.0000 </r>
       <r>  -13.9564    1.0000 </r>
       <r>  -13.9564    1.0000 </r>
       <r>  -13.2036    1.0000 </r>
       <r>  -12.5079    1.0000 </r>
       <r>  -12.5079    1.0000 </r>
       <r>  -12.1437    1.0000 </r>
       <r>  -12.0465    1.0000 </r>
       <r>  -11.8921    1.0000 </r>
       <r>  -11.6862    1.0000 </r>
       <r>  -11.6862    1.0000 </r>
       <r>  -11.4481    1.0000 </r>
       <r>  -11.4481    1.0000 </r>
       <r>  -11.0189    1.0000 </r>
       <r>  -11.0189    1.0000 </r>
       <r>  -10.8415    1.0000 </r>
       <r>  -10.8415    1.0000 </r>
       <r>  -10.6154    1.0000 </r>
       <r>  -10.6154    1.0000 </r>
       <r>  -10.4806    1.0000 </r>
       <r>  -10.2449    1.0000 </r>
       <r>  -10.2296    1.0000 </r>
       <r>    8.2091    0.0000 </r>
       <r>    9.3304    0.0000 </r>
       <r>    9.3304    0.0000 </r>
       <r>    9.4801    0.0000 </r>
       <r>   11.2423    0.0000 </r>
       <r>   11.6093    0.0000 </r>
       <r>   11.6093    0.0000 </r>
       <r>   11.7076    0.0000 </r>
       <r>   11.7076    0.0000 </r>
       <r>   11.8112    0.0000 </r>
       <r>   11.8112    0.0000 </r>
       <r>   12.1554    0.0000 </r>
       <r>   12.1554    0.0000 </r>
       <r>   12.1688    0.0000 </r>
       <r>   12.5544    0.0000 </r>
       <r>   12.5544    0.0000 </r>
      </set>
      <set comment="kpoint 3">
       <r>  -17.6937    1.0000 </r>
       <r>  -16.5884    1.0000 </r>
       <r>  -16.5884    1.0000 </r>
       <r>  -13.9261    1.0000 </r>
       <r>  -13.8255    1.0000 </r>
       <r>  -13.8255    1.0000 </r>
       <r>  -13.1299    1.0000 </r>
       <r>  -13.1299    1.0000 </r>
       <r>  -12.0418    1.0000 </r>
       <r>  -11.9472    1.0000 </r>
       <r>  -11.6017    1.0000 </r>
       <r>  -11.6017    1.0000 </r>
       <r>  -11.3677    1.0000 </r>
       <r>  -11.3530    1.0000 </r>
       <r>  -11.3530    1.0000 </r>
       <r>  -11.0659    1.0000 </r>
       <r>  -11.0659    1.0000 </r>
       <r>  -10.7964    1.0000 </r>
       <r>  -10.7964    1.0000 </r>
       <r>  -10.5671    1.0000 </r>
       <r>  -10.5671    1.0000 </r>
       <r>  -10.4560    1.0000 </r>
       <r>  -10.3837    1.0000 </r>
       <r>  -10.3535    1.0000 </r>
       <r>    8.4510    0.0000 </r>
       <r>    9.5663    0.0000 </r>
       <r>    9.5663    0.0000 </r>
       <r>    9.6558    0.0000 </r>
       <r>   11.1133    0.0000 </r>
       <r>   11.8183    0.0000 </r>
       <r>   11.8183    0.0000 </r>
       <r>   11.8328    0.0000 </r>
       <r>   11.8328    0.0000 </r>
       <r>   12.0709    0.0000 </r>
       <r>   12.0709    0.0000 </r>
       <r>   12.5548    0.0000 </r>
       <r>   12.5548    0.0000 </r>
       <r>   12.6873    0.0000 </r>
       <r>   12.6873    0.0000 </r>
       <r>   12.9457    0.0000 </r>
      </set>
      <set comment="kpoint 4">
       <r>  -17.4142    1.0000 </r>
       <r>  -16.3240    1.0000 </r>
       <r>  -16.3240    1.0000 </r>
       <r>  -14.6483    1.0000 </r>
       <r>  -13.7696    1.0000 </r>
       <r>  -13.7696    1.0000 </r>
       <r>  -13.6128    1.0000 </r>
       <r>  -13.6128    1.0000 </r>
       <r>  -11.8780    1.0000 </r>
       <r>  -11.7875    1.0000 </r>
       <r>  -11.7443    1.0000 </r>
       <r>  -11.7443    1.0000 </r>
       <r>  -11.4681    1.0000 </r>
       <r>  -11.4681    1.0000 </r>
       <r>  -10.9614    1.0000 </r>
       <r>  -10.8012    1.0000 </r>
       <r>  -10.8012    1.0000 </r>
       <r>  -10.7312    1.0000 </r>
       <r>  -10.7312    1.0000 </r>
       <r>  -10.6139    1.0000 </r>
       <r>  -10.6139    1.0000 </r>
       <r>  -10.5923    1.0000 </r>
       <r>  -10.5482    1.0000 </r>
       <r>  -10.4265    1.0000 </r>
       <r>    8.8541    0.0000 </r>
       <r>    9.9352    0.0000 </r>
       <r>    9.9579    0.0000 </r>
       <r>    9.9579    0.0000 </r>
       <r>   11.1328    0.0000 </r>
       <r>   11.9874    0.0000 </r>
       <r>   11.9874    0.0000 </r>
       <r>   12.2003    0.0000 </r>
       <r>   12.2003    0.0000 </r>
       <r>   12.5634    0.0000 </r>
       <r>   12.5634    0.0000 </r>
       <r>   12.6032    0.0000 </r>
       <r>   12.6032    0.0000 </r>
       <r>   13.2768    0.0000 </r>
       <r>   13.3795    0.0000 </r>
       <r>   13.3795    0.0000 </r>
      </set>
      <set comment="kpoint 5">
       <r>  -17.0299    1.0000 </r>
       <r>  -15.9620    1.0000 </r>
       <r>  -15.9620    1.0000 </r>
       <r>  -15.3412    1.0000 </r>
       <r>  -14.3963    1.0000 </r>
       <r>  -14.3963    1.0000 </r>
       <r>  -13.3262    1.0000 </r>
       <r>  -13.3262    1.0000 </r>
       <r>  -12.1638    1.0000 </r>
       <r>  -12.1638    1.0000 </r>
       <r>  -11.6616    1.0000 </r>
       <r>  -11.5770    1.0000 </r>
       <r>  -11.2966    1.0000 </r>
       <r>  -11.2966    1.0000 </r>
       <r>  -10.8484    1.0000 </r>
       <r>  -10.7919    1.0000 </r>
       <r>  -10.7360    1.0000 </r>
       <r>  -10.7360    1.0000 </r>
       <r>  -10.6782    1.0000 </r>
       <r>  -10.6609    1.0000 </r>
       <r>  -10.6609    1.0000 </r>
       <r>  -10.6495    1.0000 </r>
       <r>  -10.6495    1.0000 </r>
       <r>  -10.4092    1.0000 </r>
       <r>    9.4182    0.0000 </r>
       <r>   10.2922    0.0000 </r>
       <r>   10.5020    0.0000 </r>
       <r>   10.5020    0.0000 </r>
       <r>   11.1450    0.0000 </r>
       <r>   12.0731    0.0000 </r>
       <r>   12.1901    0.0000 </r>
       <r>   12.1901    0.0000 </r>
       <r>   12.6155    0.0000 </r>
       <r>   12.6155    0.0000 </r>
       <r>   12.7006    0.0000 </r>
       <r>   12.7006    0.0000 </r>
       <r>   12.7062    0.0000 </r>
       <r>   12.7062    0.0000 </r>
       <r>   14.1624    0.0000 </r>
       <r>   14.1794    0.0000 </r>
      </set>
      <set comment="kpoint 6">
       <r>  -16.5485    1.0000 </r>
       <r>  -15.9809    1.0000 </r>
       <r>  -15.5112    1.0000 </r>
       <r>  -15.5112    1.0000 </r>
       <r>  -14.9838    1.0000 </r>
       <r>  -14.9838    1.0000 </r>
       <r>  -12.9776    1.0000 </r>
       <r>  -12.9776    1.0000 </r>
       <r>  -12.5833    1.0000 </r>
       <r>  -12.5833    1.0000 </r>
       <r>  -11.4056    1.0000 </r>
       <r>  -11.3286    1.0000 </r>
       <r>  -11.1275    1.0000 </r>
       <r>  -11.1030    1.0000 </r>
       <r>  -11.1030    1.0000 </r>
       <r>  -11.0599    1.0000 </r>
       <r>  -10.9079    1.0000 </r>
       <r>  -10.9079    1.0000 </r>
       <r>  -10.6063    1.0000 </r>
       <r>  -10.6063    1.0000 </r>
       <r>  -10.5932    1.0000 </r>
       <r>  -10.5932    1.0000 </r>
       <r>  -10.5075    1.0000 </r>
       <r>  -10.4271    1.0000 </r>
       <r>   10.1430    0.0000 </r>
       <r>   10.6753    0.0000 </r>
       <r>   10.9941    0.0000 </r>
       <r>   11.0282    0.0000 </r>
       <r>   11.1898    0.0000 </r>
       <r>   11.1898    0.0000 </r>
       <r>   11.9900    0.0000 </r>
       <r>   11.9900    0.0000 </r>
       <r>   12.3900    0.0000 </r>
       <r>   12.3900    0.0000 </r>
       <r>   12.5437    0.0000 </r>
       <r>   12.5437    0.0000 </r>
       <r>   13.3056    0.0000 </r>
       <r>   13.3056    0.0000 </r>
       <r>   13.9330    0.0000 </r>
       <r>   13.9330    0.0000 </r>
      </set>
      <set comment="kpoint 7">
       <r>  -17.8565    1.0000 </r>
       <r>  -16.7428    1.0000 </r>
       <r>  -16.7428    1.0000 </r>
       <r>  -13.9511    1.0000 </r>
       <r>  -13.9511    1.0000 </r>
       <r>  -12.4947    1.0000 </r>
       <r>  -12.4947    1.0000 </r>
       <r>  -12.3905    1.0000 </r>
       <r>  -12.0424    1.0000 </r>
       <r>  -11.9236    1.0000 </r>
       <r>  -11.9236    1.0000 </r>
       <r>  -11.9236    1.0000 </r>
       <r>  -11.9236    1.0000 </r>
       <r>  -11.8749    1.0000 </r>
       <r>  -11.8749    1.0000 </r>
       <r>  -10.8839    1.0000 </r>
       <r>  -10.8839    1.0000 </r>
       <r>  -10.7719    1.0000 </r>
       <r>  -10.7719    1.0000 </r>
       <r>  -10.7719    1.0000 </r>
       <r>  -10.7719    1.0000 </r>
       <r>  -10.4348    1.0000 </r>
       <r>  -10.2084    1.0000 </r>
       <r>  -10.2084    1.0000 </r>
       <r>    8.2188    0.0000 </r>
       <r>    9.4308    0.0000 </r>
       <r>    9.4308    0.0000 </r>
       <r>    9.6286    0.0000 </r>
       <r>   11.3682    0.0000 </r>
       <r>   11.3682    0.0000 </r>
       <r>   11.4996    0.0000 </r>
       <r>   11.4996    0.0000 </r>
       <r>   11.4996    0.0000 </r>
       <r>   11.4996    0.0000 </r>
       <r>   11.6533    0.0000 </r>
       <r>   11.6533    0.0000 </r>
       <r>   11.7121    0.0000 </r>
       <r>   11.7121    0.0000 </r>
       <r>   12.7249    0.0000 </r>
       <r>   12.7249    0.0000 </r>
      </set>
      <set comment="kpoint 8">
       <r>  -17.7998    1.0000 </r>
       <r>  -16.6890    1.0000 </r>
       <r>  -16.6890    1.0000 </r>
       <r>  -13.9072    1.0000 </r>
       <r>  -13.9072    1.0000 </r>
       <r>  -13.1715    1.0000 </r>
       <r>  -12.4823    1.0000 </r>
       <r>  -12.4823    1.0000 </r>
       <r>  -12.3553    1.0000 </r>
       <r>  -12.0091    1.0000 </r>
       <r>  -11.8924    1.0000 </r>
       <r>  -11.8452    1.0000 </r>
       <r>  -11.8452    1.0000 </r>
       <r>  -11.4518    1.0000 </r>
       <r>  -11.4518    1.0000 </r>
       <r>  -11.0128    1.0000 </r>
       <r>  -11.0128    1.0000 </r>
       <r>  -10.8671    1.0000 </r>
       <r>  -10.8671    1.0000 </r>
       <r>  -10.6288    1.0000 </r>
       <r>  -10.6288    1.0000 </r>
       <r>  -10.4250    1.0000 </r>
       <r>  -10.2652    1.0000 </r>
       <r>  -10.2379    1.0000 </r>
       <r>    8.2994    0.0000 </r>
       <r>    9.5074    0.0000 </r>
       <r>    9.5074    0.0000 </r>
       <r>    9.6868    0.0000 </r>
       <r>   11.0394    0.0000 </r>
       <r>   11.4516    0.0000 </r>
       <r>   11.4516    0.0000 </r>
       <r>   11.7221    0.0000 </r>
       <r>   11.7221    0.0000 </r>
       <r>   11.7497    0.0000 </r>
       <r>   11.7497    0.0000 </r>
       <r>   11.7797    0.0000 </r>
       <r>   11.7797    0.0000 </r>
       <r>   11.9349    0.0000 </r>
       <r>   12.6630    0.0000 </r>
       <r>   12.6630    0.0000 </r>
      </set>
      <set comment="kpoint 9">
       <r>  -17.6307    1.0000 </r>
       <r>  -16.5287    1.0000 </r>
       <r>  -16.5287    1.0000 </r>
       <r>  -13.8850    1.0000 </r>
       <r>  -13.7773    1.0000 </r>
       <r>  -13.7773    1.0000 </r>
       <r>  -13.0950    1.0000 </r>
       <r>  -13.0950    1.0000 </r>
       <r>  -12.2515    1.0000 </r>
       <r>  -11.9108    1.0000 </r>
       <r>  -11.7582    1.0000 </r>
       <r>  -11.7582    1.0000 </r>
       <r>  -11.4058    1.0000 </r>
       <r>  -11.3369    1.0000 </r>
       <r>  -11.3369    1.0000 </r>
       <r>  -11.0963    1.0000 </r>
       <r>  -11.0963    1.0000 </r>
       <r>  -10.8193    1.0000 </r>
       <r>  -10.8193    1.0000 </r>
       <r>  -10.5814    1.0000 </r>
       <r>  -10.5814    1.0000 </r>
       <r>  -10.3986    1.0000 </r>
       <r>  -10.3904    1.0000 </r>
       <r>  -10.3524    1.0000 </r>
       <r>    8.5413    0.0000 </r>
       <r>    9.7363    0.0000 </r>
       <r>    9.7363    0.0000 </r>
       <r>    9.8571    0.0000 </r>
       <r>   10.9429    0.0000 </r>
       <r>   11.6616    0.0000 </r>
       <r>   11.6616    0.0000 </r>
       <r>   11.8578    0.0000 </r>
       <r>   11.8578    0.0000 </r>
       <r>   11.9259    0.0000 </r>
       <r>   11.9259    0.0000 </r>
       <r>   12.1747    0.0000 </r>
       <r>   12.1747    0.0000 </r>
       <r>   12.7122    0.0000 </r>
       <r>   12.8402    0.0000 </r>
       <r>   12.8402    0.0000 </r>
      </set>
      <set comment="kpoint 10">
       <r>  -17.3521    1.0000 </r>
       <r>  -16.2655    1.0000 </r>
       <r>  -16.2655    1.0000 </r>
       <r>  -14.6007    1.0000 </r>
       <r>  -13.7275    1.0000 </r>
       <r>  -13.7275    1.0000 </r>
       <r>  -13.5661    1.0000 </r>
       <r>  -13.5661    1.0000 </r>
       <r>  -12.0852    1.0000 </r>
       <r>  -11.7529    1.0000 </r>
       <r>  -11.7196    1.0000 </r>
       <r>  -11.7196    1.0000 </r>
       <r>  -11.6207    1.0000 </r>
       <r>  -11.6207    1.0000 </r>
       <r>  -11.1045    1.0000 </r>
       <r>  -10.8927    1.0000 </r>
       <r>  -10.8927    1.0000 </r>
       <r>  -10.7494    1.0000 </r>
       <r>  -10.7494    1.0000 </r>
       <r>  -10.5948    1.0000 </r>
       <r>  -10.5948    1.0000 </r>
       <r>  -10.5383    1.0000 </r>
       <r>  -10.5176    1.0000 </r>
       <r>  -10.3656    1.0000 </r>
       <r>    8.9444    0.0000 </r>
       <r>   10.1142    0.0000 </r>
       <r>   10.1142    0.0000 </r>
       <r>   10.1252    0.0000 </r>
       <r>   11.0143    0.0000 </r>
       <r>   12.0217    0.0000 </r>
       <r>   12.0217    0.0000 </r>
       <r>   12.0586    0.0000 </r>
       <r>   12.0586    0.0000 </r>
       <r>   12.2552    0.0000 </r>
       <r>   12.2552    0.0000 </r>
       <r>   12.4530    0.0000 </r>
       <r>   12.4530    0.0000 </r>
       <r>   13.3423    0.0000 </r>
       <r>   13.3423    0.0000 </r>
       <r>   13.3664    0.0000 </r>
      </set>
      <set comment="kpoint 11">
       <r>  -16.9693    1.0000 </r>
       <r>  -15.9051    1.0000 </r>
       <r>  -15.9051    1.0000 </r>
       <r>  -15.2888    1.0000 </r>
       <r>  -14.3488    1.0000 </r>
       <r>  -14.3488    1.0000 </r>
       <r>  -13.2817    1.0000 </r>
       <r>  -13.2817    1.0000 </r>
       <r>  -12.1322    1.0000 </r>
       <r>  -12.1322    1.0000 </r>
       <r>  -11.8663    1.0000 </r>
       <r>  -11.5450    1.0000 </r>
       <r>  -11.4443    1.0000 </r>
       <r>  -11.4443    1.0000 </r>
       <r>  -11.1202    1.0000 </r>
       <r>  -10.9003    1.0000 </r>
       <r>  -10.9003    1.0000 </r>
       <r>  -10.7744    1.0000 </r>
       <r>  -10.6717    1.0000 </r>
       <r>  -10.6717    1.0000 </r>
       <r>  -10.5840    1.0000 </r>
       <r>  -10.5840    1.0000 </r>
       <r>  -10.4967    1.0000 </r>
       <r>  -10.3415    1.0000 </r>
       <r>    9.5084    0.0000 </r>
       <r>   10.4602    0.0000 </r>
       <r>   10.6326    0.0000 </r>
       <r>   10.6326    0.0000 </r>
       <r>   11.1068    0.0000 </r>
       <r>   12.1630    0.0000 </r>
       <r>   12.2155    0.0000 </r>
       <r>   12.2155    0.0000 </r>
       <r>   12.3123    0.0000 </r>
       <r>   12.3123    0.0000 </r>
       <r>   12.5565    0.0000 </r>
       <r>   12.5565    0.0000 </r>
       <r>   12.6873    0.0000 </r>
       <r>   12.6873    0.0000 </r>
       <r>   13.8817    0.0000 </r>
       <r>   13.8839    0.0000 </r>
      </set>
      <set comment="kpoint 12">
       <r>  -16.4899    1.0000 </r>
       <r>  -15.9249    1.0000 </r>
       <r>  -15.4565    1.0000 </r>
       <r>  -15.4565    1.0000 </r>
       <r>  -14.9323    1.0000 </r>
       <r>  -14.9323    1.0000 </r>
       <r>  -12.9363    1.0000 </r>
       <r>  -12.9363    1.0000 </r>
       <r>  -12.5462    1.0000 </r>
       <r>  -12.5462    1.0000 </r>
       <r>  -11.6110    1.0000 </r>
       <r>  -11.3441    1.0000 </r>
       <r>  -11.3003    1.0000 </r>
       <r>  -11.2462    1.0000 </r>
       <r>  -11.2462    1.0000 </r>
       <r>  -11.0510    1.0000 </r>
       <r>  -11.0510    1.0000 </r>
       <r>  -11.0363    1.0000 </r>
       <r>  -10.6054    1.0000 </r>
       <r>  -10.6054    1.0000 </r>
       <r>  -10.5724    1.0000 </r>
       <r>  -10.5724    1.0000 </r>
       <r>  -10.4002    1.0000 </r>
       <r>  -10.3466    1.0000 </r>
       <r>   10.2332    0.0000 </r>
       <r>   10.8017    0.0000 </r>
       <r>   11.0491    0.0000 </r>
       <r>   11.1182    0.0000 </r>
       <r>   11.2682    0.0000 </r>
       <r>   11.2682    0.0000 </r>
       <r>   11.9381    0.0000 </r>
       <r>   11.9381    0.0000 </r>
       <r>   12.4005    0.0000 </r>
       <r>   12.4005    0.0000 </r>
       <r>   12.5290    0.0000 </r>
       <r>   12.5290    0.0000 </r>
       <r>   13.1685    0.0000 </r>
       <r>   13.1685    0.0000 </r>
       <r>   13.5813    0.0000 </r>
       <r>   13.5813    0.0000 </r>
      </set>
      <set comment="kpoint 13">
       <r>  -17.6666    1.0000 </r>
       <r>  -16.5627    1.0000 </r>
       <r>  -16.5627    1.0000 </r>
       <r>  -13.8048    1.0000 </r>
       <r>  -13.8048    1.0000 </r>
       <r>  -12.9150    1.0000 </r>
       <r>  -12.4397    1.0000 </r>
       <r>  -12.4397    1.0000 </r>
       <r>  -12.2885    1.0000 </r>
       <r>  -12.2885    1.0000 </r>
       <r>  -11.9315    1.0000 </r>
       <r>  -11.8865    1.0000 </r>
       <r>  -11.8865    1.0000 </r>
       <r>  -11.8865    1.0000 </r>
       <r>  -11.8865    1.0000 </r>
       <r>  -11.0025    1.0000 </r>
       <r>  -11.0025    1.0000 </r>
       <r>  -10.7850    1.0000 </r>
       <r>  -10.7850    1.0000 </r>
       <r>  -10.7850    1.0000 </r>
       <r>  -10.7850    1.0000 </r>
       <r>  -10.3624    1.0000 </r>
       <r>  -10.2563    1.0000 </r>
       <r>  -10.2563    1.0000 </r>
       <r>    8.4898    0.0000 </r>
       <r>    9.9410    0.0000 </r>
       <r>    9.9410    0.0000 </r>
       <r>   10.2365    0.0000 </r>
       <r>   10.8455    0.0000 </r>
       <r>   10.8455    0.0000 </r>
       <r>   10.8455    0.0000 </r>
       <r>   10.8455    0.0000 </r>
       <r>   10.8523    0.0000 </r>
       <r>   10.8523    0.0000 </r>
       <r>   11.8354    0.0000 </r>
       <r>   11.8354    0.0000 </r>
       <r>   11.9834    0.0000 </r>
       <r>   11.9834    0.0000 </r>
       <r>   12.5779    0.0000 </r>
       <r>   12.5779    0.0000 </r>
      </set>
      <set comment="kpoint 14">
       <r>  -17.6104    1.0000 </r>
       <r>  -16.5096    1.0000 </r>
       <r>  -16.5096    1.0000 </r>
       <r>  -13.7618    1.0000 </r>
       <r>  -13.7618    1.0000 </r>
       <r>  -13.0774    1.0000 </r>
       <r>  -12.8776    1.0000 </r>
       <r>  -12.4079    1.0000 </r>
       <r>  -12.4079    1.0000 </r>
       <r>  -12.2563    1.0000 </r>
       <r>  -12.2563    1.0000 </r>
       <r>  -11.8991    1.0000 </r>
       <r>  -11.8990    1.0000 </r>
       <r>  -11.4662    1.0000 </r>
       <r>  -11.4662    1.0000 </r>
       <r>  -10.9955    1.0000 </r>
       <r>  -10.9955    1.0000 </r>
       <r>  -10.9835    1.0000 </r>
       <r>  -10.9835    1.0000 </r>
       <r>  -10.6663    1.0000 </r>
       <r>  -10.6663    1.0000 </r>
       <r>  -10.3514    1.0000 </r>
       <r>  -10.3194    1.0000 </r>
       <r>  -10.2626    1.0000 </r>
       <r>    8.5704    0.0000 </r>
       <r>   10.0113    0.0000 </r>
       <r>   10.0113    0.0000 </r>
       <r>   10.2895    0.0000 </r>
       <r>   10.5823    0.0000 </r>
       <r>   10.7798    0.0000 </r>
       <r>   10.7798    0.0000 </r>
       <r>   11.1421    0.0000 </r>
       <r>   11.1421    0.0000 </r>
       <r>   11.3814    0.0000 </r>
       <r>   11.8705    0.0000 </r>
       <r>   11.8705    0.0000 </r>
       <r>   12.0347    0.0000 </r>
       <r>   12.0347    0.0000 </r>
       <r>   12.5956    0.0000 </r>
       <r>   12.5957    0.0000 </r>
      </set>
      <set comment="kpoint 15">
       <r>  -17.4430    1.0000 </r>
       <r>  -16.3512    1.0000 </r>
       <r>  -16.3512    1.0000 </r>
       <r>  -13.7638    1.0000 </r>
       <r>  -13.6346    1.0000 </r>
       <r>  -13.6346    1.0000 </r>
       <r>  -12.9923    1.0000 </r>
       <r>  -12.9923    1.0000 </r>
       <r>  -12.7672    1.0000 </r>
       <r>  -12.1618    1.0000 </r>
       <r>  -12.1618    1.0000 </r>
       <r>  -11.8038    1.0000 </r>
       <r>  -11.5237    1.0000 </r>
       <r>  -11.2904    1.0000 </r>
       <r>  -11.2904    1.0000 </r>
       <r>  -11.1892    1.0000 </r>
       <r>  -11.1892    1.0000 </r>
       <r>  -10.9291    1.0000 </r>
       <r>  -10.9291    1.0000 </r>
       <r>  -10.6207    1.0000 </r>
       <r>  -10.6207    1.0000 </r>
       <r>  -10.4035    1.0000 </r>
       <r>  -10.3500    1.0000 </r>
       <r>  -10.3214    1.0000 </r>
       <r>    8.8123    0.0000 </r>
       <r>   10.2200    0.0000 </r>
       <r>   10.2200    0.0000 </r>
       <r>   10.4424    0.0000 </r>
       <r>   10.5686    0.0000 </r>
       <r>   10.9591    0.0000 </r>
       <r>   10.9591    0.0000 </r>
       <r>   11.5994    0.0000 </r>
       <r>   11.5994    0.0000 </r>
       <r>   11.9705    0.0000 </r>
       <r>   11.9705    0.0000 </r>
       <r>   12.1443    0.0000 </r>
       <r>   12.1824    0.0000 </r>
       <r>   12.1824    0.0000 </r>
       <r>   12.8033    0.0000 </r>
       <r>   12.8033    0.0000 </r>
      </set>
      <set comment="kpoint 16">
       <r>  -17.1673    1.0000 </r>
       <r>  -16.0912    1.0000 </r>
       <r>  -16.0912    1.0000 </r>
       <r>  -14.4597    1.0000 </r>
       <r>  -13.6033    1.0000 </r>
       <r>  -13.6033    1.0000 </r>
       <r>  -13.4279    1.0000 </r>
       <r>  -13.4279    1.0000 </r>
       <r>  -12.5900    1.0000 </r>
       <r>  -12.0118    1.0000 </r>
       <r>  -12.0118    1.0000 </r>
       <r>  -11.6512    1.0000 </r>
       <r>  -11.6478    1.0000 </r>
       <r>  -11.6478    1.0000 </r>
       <r>  -11.4068    1.0000 </r>
       <r>  -11.1015    1.0000 </r>
       <r>  -11.1015    1.0000 </r>
       <r>  -10.8477    1.0000 </r>
       <r>  -10.8477    1.0000 </r>
       <r>  -10.5980    1.0000 </r>
       <r>  -10.5980    1.0000 </r>
       <r>  -10.5100    1.0000 </r>
       <r>  -10.4144    1.0000 </r>
       <r>  -10.2815    1.0000 </r>
       <r>    9.2152    0.0000 </r>
       <r>   10.5582    0.0000 </r>
       <r>   10.5582    0.0000 </r>
       <r>   10.6744    0.0000 </r>
       <r>   10.7604    0.0000 </r>
       <r>   11.3305    0.0000 </r>
       <r>   11.3305    0.0000 </r>
       <r>   12.0715    0.0000 </r>
       <r>   12.0715    0.0000 </r>
       <r>   12.1191    0.0000 </r>
       <r>   12.1191    0.0000 </r>
       <r>   12.4061    0.0000 </r>
       <r>   12.4061    0.0000 </r>
       <r>   13.0963    0.0000 </r>
       <r>   13.2092    0.0000 </r>
       <r>   13.2092    0.0000 </r>
      </set>
      <set comment="kpoint 17">
       <r>  -16.7887    1.0000 </r>
       <r>  -15.7358    1.0000 </r>
       <r>  -15.7358    1.0000 </r>
       <r>  -15.1332    1.0000 </r>
       <r>  -14.2082    1.0000 </r>
       <r>  -14.2082    1.0000 </r>
       <r>  -13.1504    1.0000 </r>
       <r>  -13.1504    1.0000 </r>
       <r>  -12.3566    1.0000 </r>
       <r>  -12.0395    1.0000 </r>
       <r>  -12.0395    1.0000 </r>
       <r>  -11.8180    1.0000 </r>
       <r>  -11.8180    1.0000 </r>
       <r>  -11.5416    1.0000 </r>
       <r>  -11.4511    1.0000 </r>
       <r>  -11.1908    1.0000 </r>
       <r>  -11.1908    1.0000 </r>
       <r>  -10.7529    1.0000 </r>
       <r>  -10.7529    1.0000 </r>
       <r>  -10.7238    1.0000 </r>
       <r>  -10.5804    1.0000 </r>
       <r>  -10.5804    1.0000 </r>
       <r>  -10.3367    1.0000 </r>
       <r>  -10.2461    1.0000 </r>
       <r>    9.7791    0.0000 </r>
       <r>   10.9405    0.0000 </r>
       <r>   11.0032    0.0000 </r>
       <r>   11.0032    0.0000 </r>
       <r>   11.0338    0.0000 </r>
       <r>   11.7283    0.0000 </r>
       <r>   11.7283    0.0000 </r>
       <r>   12.2864    0.0000 </r>
       <r>   12.2864    0.0000 </r>
       <r>   12.3800    0.0000 </r>
       <r>   12.3800    0.0000 </r>
       <r>   12.4326    0.0000 </r>
       <r>   12.6640    0.0000 </r>
       <r>   12.6640    0.0000 </r>
       <r>   13.3380    0.0000 </r>
       <r>   13.3380    0.0000 </r>
      </set>
      <set comment="kpoint 18">
       <r>  -16.3153    1.0000 </r>
       <r>  -15.7584    1.0000 </r>
       <r>  -15.2941    1.0000 </r>
       <r>  -15.2941    1.0000 </r>
       <r>  -14.7792    1.0000 </r>
       <r>  -14.7792    1.0000 </r>
       <r>  -12.8145    1.0000 </r>
       <r>  -12.8145    1.0000 </r>
       <r>  -12.4370    1.0000 </r>
       <r>  -12.4370    1.0000 </r>
       <r>  -12.0837    1.0000 </r>
       <r>  -11.7972    1.0000 </r>
       <r>  -11.5979    1.0000 </r>
       <r>  -11.5979    1.0000 </r>
       <r>  -11.3766    1.0000 </r>
       <r>  -11.3766    1.0000 </r>
       <r>  -11.2173    1.0000 </r>
       <r>  -10.9676    1.0000 </r>
       <r>  -10.6634    1.0000 </r>
       <r>  -10.6634    1.0000 </r>
       <r>  -10.6003    1.0000 </r>
       <r>  -10.6003    1.0000 </r>
       <r>  -10.2626    1.0000 </r>
       <r>  -10.2338    1.0000 </r>
       <r>   10.5037    0.0000 </r>
       <r>   11.1562    0.0000 </r>
       <r>   11.2046    0.0000 </r>
       <r>   11.3884    0.0000 </r>
       <r>   11.4918    0.0000 </r>
       <r>   11.4918    0.0000 </r>
       <r>   11.8303    0.0000 </r>
       <r>   11.8303    0.0000 </r>
       <r>   12.4268    0.0000 </r>
       <r>   12.4268    0.0000 </r>
       <r>   12.4803    0.0000 </r>
       <r>   12.4803    0.0000 </r>
       <r>   12.8932    0.0000 </r>
       <r>   12.8932    0.0000 </r>
       <r>   13.0882    0.0000 </r>
       <r>   13.0882    0.0000 </r>
      </set>
      <set comment="kpoint 19">
       <r>  -17.3542    1.0000 </r>
       <r>  -16.2674    1.0000 </r>
       <r>  -16.2674    1.0000 </r>
       <r>  -13.5946    1.0000 </r>
       <r>  -13.5676    1.0000 </r>
       <r>  -13.5676    1.0000 </r>
       <r>  -12.8536    1.0000 </r>
       <r>  -12.8536    1.0000 </r>
       <r>  -12.3599    1.0000 </r>
       <r>  -12.3599    1.0000 </r>
       <r>  -11.8333    1.0000 </r>
       <r>  -11.8333    1.0000 </r>
       <r>  -11.8333    1.0000 </r>
       <r>  -11.8333    1.0000 </r>
       <r>  -11.7541    1.0000 </r>
       <r>  -11.2444    1.0000 </r>
       <r>  -11.2444    1.0000 </r>
       <r>  -10.8053    1.0000 </r>
       <r>  -10.8053    1.0000 </r>
       <r>  -10.8053    1.0000 </r>
       <r>  -10.8053    1.0000 </r>
       <r>  -10.3766    1.0000 </r>
       <r>  -10.3266    1.0000 </r>
       <r>  -10.3266    1.0000 </r>
       <r>    8.9414    0.0000 </r>
       <r>   10.2008    0.0000 </r>
       <r>   10.2008    0.0000 </r>
       <r>   10.2008    0.0000 </r>
       <r>   10.2008    0.0000 </r>
       <r>   10.2875    0.0000 </r>
       <r>   10.2875    0.0000 </r>
       <r>   10.6988    0.0000 </r>
       <r>   10.6988    0.0000 </r>
       <r>   11.1943    0.0000 </r>
       <r>   12.0203    0.0000 </r>
       <r>   12.0203    0.0000 </r>
       <r>   12.2412    0.0000 </r>
       <r>   12.2412    0.0000 </r>
       <r>   12.2412    0.0000 </r>
       <r>   12.2412    0.0000 </r>
      </set>
      <set comment="kpoint 20">
       <r>  -17.2989    1.0000 </r>
       <r>  -16.2153    1.0000 </r>
       <r>  -16.2153    1.0000 </r>
       <r>  -13.5540    1.0000 </r>
       <r>  -13.5261    1.0000 </r>
       <r>  -13.5261    1.0000 </r>
       <r>  -12.9290    1.0000 </r>
       <r>  -12.8178    1.0000 </r>
       <r>  -12.8178    1.0000 </r>
       <r>  -12.2913    1.0000 </r>
       <r>  -12.2913    1.0000 </r>
       <r>  -11.9281    1.0000 </r>
       <r>  -11.7234    1.0000 </r>
       <r>  -11.5007    1.0000 </r>
       <r>  -11.5007    1.0000 </r>
       <r>  -11.2223    1.0000 </r>
       <r>  -11.2223    1.0000 </r>
       <r>  -10.9699    1.0000 </r>
       <r>  -10.9699    1.0000 </r>
       <r>  -10.7196    1.0000 </r>
       <r>  -10.7196    1.0000 </r>
       <r>  -10.3880    1.0000 </r>
       <r>  -10.3638    1.0000 </r>
       <r>  -10.3020    1.0000 </r>
       <r>    9.0220    0.0000 </r>
       <r>   10.1054    0.0000 </r>
       <r>   10.1506    0.0000 </r>
       <r>   10.1506    0.0000 </r>
       <r>   10.4978    0.0000 </r>
       <r>   10.4978    0.0000 </r>
       <r>   10.7498    0.0000 </r>
       <r>   10.7594    0.0000 </r>
       <r>   10.7594    0.0000 </r>
       <r>   11.2374    0.0000 </r>
       <r>   12.0514    0.0000 </r>
       <r>   12.0514    0.0000 </r>
       <r>   12.3305    0.0000 </r>
       <r>   12.3306    0.0000 </r>
       <r>   12.3331    0.0000 </r>
       <r>   12.3332    0.0000 </r>
      </set>
      <set comment="kpoint 21">
       <r>  -17.1343    1.0000 </r>
       <r>  -16.0602    1.0000 </r>
       <r>  -16.0602    1.0000 </r>
       <r>  -13.5684    1.0000 </r>
       <r>  -13.4338    1.0000 </r>
       <r>  -13.4033    1.0000 </r>
       <r>  -13.4033    1.0000 </r>
       <r>  -12.8279    1.0000 </r>
       <r>  -12.8279    1.0000 </r>
       <r>  -12.7127    1.0000 </r>
       <r>  -12.7127    1.0000 </r>
       <r>  -11.7241    1.0000 </r>
       <r>  -11.6331    1.0000 </r>
       <r>  -11.3452    1.0000 </r>
       <r>  -11.3452    1.0000 </r>
       <r>  -11.2183    1.0000 </r>
       <r>  -11.2183    1.0000 </r>
       <r>  -11.1583    1.0000 </r>
       <r>  -11.1583    1.0000 </r>
       <r>  -10.6780    1.0000 </r>
       <r>  -10.6780    1.0000 </r>
       <r>  -10.4097    1.0000 </r>
       <r>  -10.3483    1.0000 </r>
       <r>  -10.3280    1.0000 </r>
       <r>    9.2637    0.0000 </r>
       <r>   10.2012    0.0000 </r>
       <r>   10.3546    0.0000 </r>
       <r>   10.3546    0.0000 </r>
       <r>   10.9369    0.0000 </r>
       <r>   10.9369    0.0000 </r>
       <r>   10.9922    0.0000 </r>
       <r>   10.9922    0.0000 </r>
       <r>   11.3575    0.0000 </r>
       <r>   11.4693    0.0000 </r>
       <r>   12.1386    0.0000 </r>
       <r>   12.1386    0.0000 </r>
       <r>   12.5468    0.0000 </r>
       <r>   12.5534    0.0000 </r>
       <r>   12.5667    0.0000 </r>
       <r>   12.5763    0.0000 </r>
      </set>
      <set comment="kpoint 22">
       <r>  -16.8635    1.0000 </r>
       <r>  -15.8058    1.0000 </r>
       <r>  -15.8058    1.0000 </r>
       <r>  -14.2307    1.0000 </r>
       <r>  -13.4025    1.0000 </r>
       <r>  -13.4025    1.0000 </r>
       <r>  -13.2400    1.0000 </r>
       <r>  -13.2044    1.0000 </r>
       <r>  -13.2044    1.0000 </r>
       <r>  -12.5446    1.0000 </r>
       <r>  -12.5446    1.0000 </r>
       <r>  -11.7883    1.0000 </r>
       <r>  -11.5344    1.0000 </r>
       <r>  -11.5344    1.0000 </r>
       <r>  -11.4894    1.0000 </r>
       <r>  -11.3837    1.0000 </r>
       <r>  -11.3837    1.0000 </r>
       <r>  -11.0606    1.0000 </r>
       <r>  -11.0606    1.0000 </r>
       <r>  -10.6519    1.0000 </r>
       <r>  -10.6519    1.0000 </r>
       <r>  -10.4677    1.0000 </r>
       <r>  -10.3443    1.0000 </r>
       <r>  -10.2780    1.0000 </r>
       <r>    9.6665    0.0000 </r>
       <r>   10.5342    0.0000 </r>
       <r>   10.7714    0.0000 </r>
       <r>   10.7714    0.0000 </r>
       <r>   11.2157    0.0000 </r>
       <r>   11.2157    0.0000 </r>
       <r>   11.5227    0.0000 </r>
       <r>   11.5823    0.0000 </r>
       <r>   11.5823    0.0000 </r>
       <r>   12.2624    0.0000 </r>
       <r>   12.2624    0.0000 </r>
       <r>   12.4039    0.0000 </r>
       <r>   12.6222    0.0000 </r>
       <r>   12.6222    0.0000 </r>
       <r>   12.8093    0.0000 </r>
       <r>   12.8093    0.0000 </r>
      </set>
      <set comment="kpoint 23">
       <r>  -16.4922    1.0000 </r>
       <r>  -15.4587    1.0000 </r>
       <r>  -15.4587    1.0000 </r>
       <r>  -14.8792    1.0000 </r>
       <r>  -13.9796    1.0000 </r>
       <r>  -13.9796    1.0000 </r>
       <r>  -12.9827    1.0000 </r>
       <r>  -12.9384    1.0000 </r>
       <r>  -12.9384    1.0000 </r>
       <r>  -12.3249    1.0000 </r>
       <r>  -12.3249    1.0000 </r>
       <r>  -12.0313    1.0000 </r>
       <r>  -11.8918    1.0000 </r>
       <r>  -11.8918    1.0000 </r>
       <r>  -11.5595    1.0000 </r>
       <r>  -11.5595    1.0000 </r>
       <r>  -11.3022    1.0000 </r>
       <r>  -10.9423    1.0000 </r>
       <r>  -10.9423    1.0000 </r>
       <r>  -10.6609    1.0000 </r>
       <r>  -10.6609    1.0000 </r>
       <r>  -10.6457    1.0000 </r>
       <r>  -10.2534    1.0000 </r>
       <r>  -10.2277    1.0000 </r>
       <r>   10.2302    0.0000 </r>
       <r>   11.0048    0.0000 </r>
       <r>   11.2971    0.0000 </r>
       <r>   11.2971    0.0000 </r>
       <r>   11.5553    0.0000 </r>
       <r>   11.5553    0.0000 </r>
       <r>   11.6659    0.0000 </r>
       <r>   12.0981    0.0000 </r>
       <r>   12.0981    0.0000 </r>
       <r>   12.3868    0.0000 </r>
       <r>   12.3868    0.0000 </r>
       <r>   12.6613    0.0000 </r>
       <r>   12.6613    0.0000 </r>
       <r>   12.8816    0.0000 </r>
       <r>   12.8904    0.0000 </r>
       <r>   12.8904    0.0000 </r>
      </set>
      <set comment="kpoint 24">
       <r>  -16.0289    1.0000 </r>
       <r>  -15.4858    1.0000 </r>
       <r>  -15.0287    1.0000 </r>
       <r>  -15.0287    1.0000 </r>
       <r>  -14.5296    1.0000 </r>
       <r>  -14.5296    1.0000 </r>
       <r>  -12.6776    1.0000 </r>
       <r>  -12.6183    1.0000 </r>
       <r>  -12.6183    1.0000 </r>
       <r>  -12.3484    1.0000 </r>
       <r>  -12.2620    1.0000 </r>
       <r>  -12.2620    1.0000 </r>
       <r>  -12.0702    1.0000 </r>
       <r>  -12.0702    1.0000 </r>
       <r>  -11.8042    1.0000 </r>
       <r>  -11.8042    1.0000 </r>
       <r>  -11.0862    1.0000 </r>
       <r>  -10.8599    1.0000 </r>
       <r>  -10.8218    1.0000 </r>
       <r>  -10.8218    1.0000 </r>
       <r>  -10.7209    1.0000 </r>
       <r>  -10.7209    1.0000 </r>
       <r>  -10.1995    1.0000 </r>
       <r>  -10.1951    1.0000 </r>
       <r>   10.9543    0.0000 </r>
       <r>   11.4433    0.0000 </r>
       <r>   11.6749    0.0000 </r>
       <r>   11.7429    0.0000 </r>
       <r>   11.7429    0.0000 </r>
       <r>   11.8300    0.0000 </r>
       <r>   11.8300    0.0000 </r>
       <r>   11.8384    0.0000 </r>
       <r>   12.3872    0.0000 </r>
       <r>   12.3872    0.0000 </r>
       <r>   12.4548    0.0000 </r>
       <r>   12.4548    0.0000 </r>
       <r>   12.6569    0.0000 </r>
       <r>   12.6569    0.0000 </r>
       <r>   12.7628    0.0000 </r>
       <r>   12.7628    0.0000 </r>
      </set>
      <set comment="kpoint 25">
       <r>  -16.9259    1.0000 </r>
       <r>  -15.8644    1.0000 </r>
       <r>  -15.8644    1.0000 </r>
       <r>  -14.3331    1.0000 </r>
       <r>  -13.4937    1.0000 </r>
       <r>  -13.4937    1.0000 </r>
       <r>  -13.2501    1.0000 </r>
       <r>  -13.2501    1.0000 </r>
       <r>  -12.2734    1.0000 </r>
       <r>  -12.2734    1.0000 </r>
       <r>  -11.7764    1.0000 </r>
       <r>  -11.7764    1.0000 </r>
       <r>  -11.7764    1.0000 </r>
       <r>  -11.7764    1.0000 </r>
       <r>  -11.5920    1.0000 </r>
       <r>  -11.5920    1.0000 </r>
       <r>  -11.5224    1.0000 </r>
       <r>  -10.8291    1.0000 </r>
       <r>  -10.8291    1.0000 </r>
       <r>  -10.8291    1.0000 </r>
       <r>  -10.8291    1.0000 </r>
       <r>  -10.4993    1.0000 </r>
       <r>  -10.4038    1.0000 </r>
       <r>  -10.4038    1.0000 </r>
       <r>    9.5733    0.0000 </r>
       <r>    9.6876    0.0000 </r>
       <r>    9.6876    0.0000 </r>
       <r>    9.6876    0.0000 </r>
       <r>    9.6876    0.0000 </r>
       <r>    9.8214    0.0000 </r>
       <r>    9.8214    0.0000 </r>
       <r>   11.5425    0.0000 </r>
       <r>   11.5425    0.0000 </r>
       <r>   11.8829    0.0000 </r>
       <r>   11.8829    0.0000 </r>
       <r>   11.8829    0.0000 </r>
       <r>   11.8829    0.0000 </r>
       <r>   12.2311    0.0000 </r>
       <r>   12.2311    0.0000 </r>
       <r>   12.4217    0.0000 </r>
      </set>
      <set comment="kpoint 26">
       <r>  -16.8720    1.0000 </r>
       <r>  -15.8138    1.0000 </r>
       <r>  -15.8138    1.0000 </r>
       <r>  -14.2890    1.0000 </r>
       <r>  -13.4542    1.0000 </r>
       <r>  -13.4542    1.0000 </r>
       <r>  -13.2106    1.0000 </r>
       <r>  -13.2106    1.0000 </r>
       <r>  -12.7390    1.0000 </r>
       <r>  -12.1433    1.0000 </r>
       <r>  -12.1433    1.0000 </r>
       <r>  -12.0011    1.0000 </r>
       <r>  -11.5676    1.0000 </r>
       <r>  -11.5676    1.0000 </r>
       <r>  -11.5661    1.0000 </r>
       <r>  -11.5661    1.0000 </r>
       <r>  -11.4939    1.0000 </r>
       <r>  -10.9392    1.0000 </r>
       <r>  -10.9392    1.0000 </r>
       <r>  -10.7768    1.0000 </r>
       <r>  -10.7768    1.0000 </r>
       <r>  -10.4838    1.0000 </r>
       <r>  -10.4437    1.0000 </r>
       <r>  -10.3521    1.0000 </r>
       <r>    9.6539    0.0000 </r>
       <r>    9.6852    0.0000 </r>
       <r>    9.6852    0.0000 </r>
       <r>    9.7449    0.0000 </r>
       <r>    9.9539    0.0000 </r>
       <r>    9.9539    0.0000 </r>
       <r>   10.1939    0.0000 </r>
       <r>   11.5911    0.0000 </r>
       <r>   11.5911    0.0000 </r>
       <r>   11.9425    0.0000 </r>
       <r>   11.9425    0.0000 </r>
       <r>   12.0080    0.0000 </r>
       <r>   12.0080    0.0000 </r>
       <r>   12.2572    0.0000 </r>
       <r>   12.2572    0.0000 </r>
       <r>   12.4485    0.0000 </r>
      </set>
      <set comment="kpoint 27">
       <r>  -16.7113    1.0000 </r>
       <r>  -15.6633    1.0000 </r>
       <r>  -15.6633    1.0000 </r>
       <r>  -14.1585    1.0000 </r>
       <r>  -13.3377    1.0000 </r>
       <r>  -13.3377    1.0000 </r>
       <r>  -13.3093    1.0000 </r>
       <r>  -13.0941    1.0000 </r>
       <r>  -13.0941    1.0000 </r>
       <r>  -12.6120    1.0000 </r>
       <r>  -12.6120    1.0000 </r>
       <r>  -11.9968    1.0000 </r>
       <r>  -11.5574    1.0000 </r>
       <r>  -11.5574    1.0000 </r>
       <r>  -11.4907    1.0000 </r>
       <r>  -11.4907    1.0000 </r>
       <r>  -11.4107    1.0000 </r>
       <r>  -11.1280    1.0000 </r>
       <r>  -11.1280    1.0000 </r>
       <r>  -10.7492    1.0000 </r>
       <r>  -10.7492    1.0000 </r>
[...]
       <r>  -13.0763    1.0000 </r>
       <r>  -12.0832    1.0000 </r>
       <r>  -12.0832    1.0000 </r>
       <r>  -12.0832    1.0000 </r>
       <r>  -12.0832    1.0000 </r>
       <r>  -11.0277    1.0000 </r>
       <r>  -11.0277    1.0000 </r>
       <r>  -11.0277    1.0000 </r>
       <r>  -11.0277    1.0000 </r>
       <r>  -10.5920    1.0000 </r>
       <r>  -10.5920    1.0000 </r>
       <r>  -10.5920    1.0000 </r>
       <r>  -10.5920    1.0000 </r>
       <r>   11.3705    0.0000 </r>
       <r>   11.3705    0.0000 </r>
       <r>   11.3705    0.0000 </r>
       <r>   11.3705    0.0000 </r>
       <r>   11.6004    0.0000 </r>
       <r>   11.6004    0.0000 </r>
       <r>   11.6004    0.0000 </r>
       <r>   11.6004    0.0000 </r>
       <r>   12.5351    0.0000 </r>
       <r>   12.5351    0.0000 </r>
       <r>   12.5351    0.0000 </r>
       <r>   12.5351    0.0000 </r>
       <r>   13.1076    0.0000 </r>
       <r>   13.1076    0.0000 </r>
       <r>   13.1076    0.0000 </r>
       <r>   13.1076    0.0000 </r>
      </set>
      <set comment="kpoint 126">
       <r>  -14.3650    1.0000 </r>
       <r>  -14.3650    1.0000 </r>
       <r>  -14.3650    1.0000 </r>
       <r>  -14.3650    1.0000 </r>
       <r>  -13.9147    1.0000 </r>
       <r>  -13.9147    1.0000 </r>
       <r>  -13.9147    1.0000 </r>
       <r>  -13.9147    1.0000 </r>
       <r>  -12.7670    1.0000 </r>
       <r>  -12.7670    1.0000 </r>
       <r>  -12.7670    1.0000 </r>
       <r>  -12.7670    1.0000 </r>
       <r>  -12.4276    1.0000 </r>
       <r>  -12.4276    1.0000 </r>
       <r>  -12.4276    1.0000 </r>
       <r>  -12.4276    1.0000 </r>
       <r>  -10.8666    1.0000 </r>
       <r>  -10.8666    1.0000 </r>
       <r>  -10.8666    1.0000 </r>
       <r>  -10.8666    1.0000 </r>
       <r>  -10.7135    1.0000 </r>
       <r>  -10.7135    1.0000 </r>
       <r>  -10.7135    1.0000 </r>
       <r>  -10.7135    1.0000 </r>
       <r>   12.2207    0.0000 </r>
       <r>   12.2207    0.0000 </r>
       <r>   12.2207    0.0000 </r>
       <r>   12.2207    0.0000 </r>
       <r>   12.2353    0.0000 </r>
       <r>   12.2353    0.0000 </r>
       <r>   12.2353    0.0000 </r>
       <r>   12.2353    0.0000 </r>
       <r>   12.7360    0.0000 </r>
       <r>   12.7360    0.0000 </r>
       <r>   12.7360    0.0000 </r>
       <r>   12.7360    0.0000 </r>
       <r>   12.7389    0.0000 </r>
       <r>   12.7389    0.0000 </r>
       <r>   12.7389    0.0000 </r>
       <r>   12.7389    0.0000 </r>
      </set>
     </set>
    </set>
   </array>
  </eigenvalues>
  <separator name="orbital magnetization" >
   <v name="MAGDIPOLOUT">      0.00000000      0.00000000      0.00000000</v>
  </separator>
  <dos>
   <i name="efermi">    -10.12837966 </i>
   <total>
    <array>
     <dimension dim="1">gridpoints</dimension>
     <dimension dim="2">spin</dimension>
     <field>energy</field>
     <field>total</field>
     <field>integrated</field>
     <set>
      <set comment="spin 1">
       <r>   -19.5395     0.0000     0.0000 </r>
       <r>   -19.4208     0.0000     0.0000 </r>
       <r>   -19.3020     0.0000     0.0000 </r>
       <r>   -19.1832     0.0000     0.0000 </r>
       <r>   -19.0645     0.0000     0.0000 </r>
       <r>   -18.9457     0.0000     0.0000 </r>
       <r>   -18.8270     0.0000     0.0000 </r>
       <r>   -18.7082     0.0000     0.0000 </r>
       <r>   -18.5895     0.0000     0.0000 </r>
       <r>   -18.4707     0.0000     0.0000 </r>
       <r>   -18.3520     0.0000     0.0000 </r>
       <r>   -18.2332     0.0000     0.0000 </r>
       <r>   -18.1145     0.0000     0.0000 </r>
       <r>   -17.9957     0.0000     0.0000 </r>
       <r>   -17.8770     0.0337     0.0040 </r>
       <r>   -17.7582     0.3828     0.0720 </r>
       <r>   -17.6395     0.1568     0.1209 </r>
       <r>   -17.5207     0.9484     0.2831 </r>
       <r>   -17.4020     0.3023     0.3427 </r>
       <r>   -17.2832     1.1668     0.5287 </r>
       <r>   -17.1645     0.8488     0.6576 </r>
       <r>   -17.0457     1.0320     0.8460 </r>
       <r>   -16.9270     0.7936     0.9920 </r>
       <r>   -16.8082     0.9700     1.1720 </r>
       <r>   -16.6894     1.5022     1.4397 </r>
       <r>   -16.5707     0.9099     1.6118 </r>
       <r>   -16.4519     1.4579     1.8360 </r>
       <r>   -16.3332     0.9655     2.0654 </r>
       <r>   -16.2144     2.1625     2.3818 </r>
       <r>   -16.0957     1.1427     2.6168 </r>
       <r>   -15.9769     0.8844     2.8285 </r>
       <r>   -15.8582     2.2607     3.1965 </r>
       <r>   -15.7394     1.8034     3.4755 </r>
       <r>   -15.6207     2.0435     3.8146 </r>
       <r>   -15.5019     1.8010     4.0737 </r>
       <r>   -15.3832     1.9748     4.4353 </r>
       <r>   -15.2644     2.4373     4.8084 </r>
       <r>   -15.1457     1.2521     5.1297 </r>
       <r>   -15.0269     2.9086     5.5386 </r>
       <r>   -14.9082     2.3961     5.9398 </r>
       <r>   -14.7894     1.6192     6.2718 </r>
       <r>   -14.6707     1.3999     6.6170 </r>
       <r>   -14.5519     3.1662     7.1677 </r>
       <r>   -14.4332     1.6588     7.5796 </r>
       <r>   -14.3144     2.3386     8.0239 </r>
       <r>   -14.1956     2.4904     8.5041 </r>
       <r>   -14.0769     4.0440     9.1128 </r>
       <r>   -13.9581     2.1741     9.4968 </r>
       <r>   -13.8394     3.9858    10.0907 </r>
       <r>   -13.7206     3.2959    10.6300 </r>
       <r>   -13.6019     3.5514    11.2361 </r>
       <r>   -13.4831     4.3642    11.9311 </r>
       <r>   -13.3644     2.3882    12.3783 </r>
       <r>   -13.2456     3.7375    13.0234 </r>
       <r>   -13.1269     5.1587    13.8058 </r>
       <r>   -13.0081     3.5609    14.4873 </r>
       <r>   -12.8894     4.8456    15.2913 </r>
       <r>   -12.7706     4.2063    16.0109 </r>
       <r>   -12.6519     3.5886    16.7860 </r>
       <r>   -12.5331     6.4059    17.7494 </r>
       <r>   -12.4144     5.9904    18.8136 </r>
       <r>   -12.2956     6.3011    19.7521 </r>
       <r>   -12.1769     6.7047    20.9667 </r>
       <r>   -12.0581     5.9608    22.1094 </r>
       <r>   -11.9394     8.1371    23.7352 </r>
       <r>   -11.8206     7.5327    24.9135 </r>
       <r>   -11.7018     9.5948    26.5144 </r>
       <r>   -11.5831     8.6453    27.8562 </r>
       <r>   -11.4643     7.8579    29.2627 </r>
       <r>   -11.3456     8.1744    30.6942 </r>
       <r>   -11.2268     9.4502    32.3381 </r>
       <r>   -11.1081     6.8419    33.5587 </r>
       <r>   -10.9893    10.6459    35.3665 </r>
       <r>   -10.8706     8.4435    36.8928 </r>
       <r>   -10.7518    10.1375    38.5789 </r>
       <r>   -10.6331    11.8030    40.6479 </r>
       <r>   -10.5143    13.8957    42.9191 </r>
       <r>   -10.3956    16.8989    45.7644 </r>
       <r>   -10.2768     8.2144    47.4906 </r>
       <r>   -10.1581     1.7862    48.0000 </r>
       <r>   -10.0393     0.0000    48.0000 </r>
       <r>    -9.9206     0.0000    48.0000 </r>
       <r>    -9.8018     0.0000    48.0000 </r>
       <r>    -9.6831     0.0000    48.0000 </r>
       <r>    -9.5643     0.0000    48.0000 </r>
       <r>    -9.4456     0.0000    48.0000 </r>
       <r>    -9.3268     0.0000    48.0000 </r>
       <r>    -9.2080     0.0000    48.0000 </r>
       <r>    -9.0893     0.0000    48.0000 </r>
       <r>    -8.9705     0.0000    48.0000 </r>
       <r>    -8.8518     0.0000    48.0000 </r>
       <r>    -8.7330     0.0000    48.0000 </r>
       <r>    -8.6143     0.0000    48.0000 </r>
       <r>    -8.4955     0.0000    48.0000 </r>
       <r>    -8.3768     0.0000    48.0000 </r>
       <r>    -8.2580     0.0000    48.0000 </r>
       <r>    -8.1393     0.0000    48.0000 </r>
       <r>    -8.0205     0.0000    48.0000 </r>
       <r>    -7.9018     0.0000    48.0000 </r>
       <r>    -7.7830     0.0000    48.0000 </r>
       <r>    -7.6643     0.0000    48.0000 </r>
       <r>    -7.5455     0.0000    48.0000 </r>
       <r>    -7.4268     0.0000    48.0000 </r>
       <r>    -7.3080     0.0000    48.0000 </r>
       <r>    -7.1893     0.0000    48.0000 </r>
       <r>    -7.0705     0.0000    48.0000 </r>
       <r>    -6.9518     0.0000    48.0000 </r>
       <r>    -6.8330     0.0000    48.0000 </r>
       <r>    -6.7142     0.0000    48.0000 </r>
       <r>    -6.5955     0.0000    48.0000 </r>
       <r>    -6.4767     0.0000    48.0000 </r>
       <r>    -6.3580     0.0000    48.0000 </r>
       <r>    -6.2392     0.0000    48.0000 </r>
       <r>    -6.1205     0.0000    48.0000 </r>
       <r>    -6.0017     0.0000    48.0000 </r>
       <r>    -5.8830     0.0000    48.0000 </r>
       <r>    -5.7642     0.0000    48.0000 </r>
       <r>    -5.6455     0.0000    48.0000 </r>
       <r>    -5.5267     0.0000    48.0000 </r>
       <r>    -5.4080     0.0000    48.0000 </r>
       <r>    -5.2892     0.0000    48.0000 </r>
       <r>    -5.1705     0.0000    48.0000 </r>
       <r>    -5.0517     0.0000    48.0000 </r>
       <r>    -4.9330     0.0000    48.0000 </r>
       <r>    -4.8142     0.0000    48.0000 </r>
       <r>    -4.6955     0.0000    48.0000 </r>
       <r>    -4.5767     0.0000    48.0000 </r>
       <r>    -4.4580     0.0000    48.0000 </r>
       <r>    -4.3392     0.0000    48.0000 </r>
       <r>    -4.2205     0.0000    48.0000 </r>
       <r>    -4.1017     0.0000    48.0000 </r>
       <r>    -3.9829     0.0000    48.0000 </r>
       <r>    -3.8642     0.0000    48.0000 </r>
       <r>    -3.7454     0.0000    48.0000 </r>
       <r>    -3.6267     0.0000    48.0000 </r>
       <r>    -3.5079     0.0000    48.0000 </r>
       <r>    -3.3892     0.0000    48.0000 </r>
       <r>    -3.2704     0.0000    48.0000 </r>
       <r>    -3.1517     0.0000    48.0000 </r>
       <r>    -3.0329     0.0000    48.0000 </r>
       <r>    -2.9142     0.0000    48.0000 </r>
       <r>    -2.7954     0.0000    48.0000 </r>
       <r>    -2.6767     0.0000    48.0000 </r>
       <r>    -2.5579     0.0000    48.0000 </r>
       <r>    -2.4392     0.0000    48.0000 </r>
       <r>    -2.3204     0.0000    48.0000 </r>
       <r>    -2.2017     0.0000    48.0000 </r>
       <r>    -2.0829     0.0000    48.0000 </r>
       <r>    -1.9642     0.0000    48.0000 </r>
       <r>    -1.8454     0.0000    48.0000 </r>
       <r>    -1.7267     0.0000    48.0000 </r>
       <r>    -1.6079     0.0000    48.0000 </r>
       <r>    -1.4891     0.0000    48.0000 </r>
       <r>    -1.3704     0.0000    48.0000 </r>
       <r>    -1.2516     0.0000    48.0000 </r>
       <r>    -1.1329     0.0000    48.0000 </r>
       <r>    -1.0141     0.0000    48.0000 </r>
       <r>    -0.8954     0.0000    48.0000 </r>
       <r>    -0.7766     0.0000    48.0000 </r>
       <r>    -0.6579     0.0000    48.0000 </r>
       <r>    -0.5391     0.0000    48.0000 </r>
       <r>    -0.4204     0.0000    48.0000 </r>
       <r>    -0.3016     0.0000    48.0000 </r>
       <r>    -0.1829     0.0000    48.0000 </r>
       <r>    -0.0641     0.0000    48.0000 </r>
       <r>     0.0546     0.0000    48.0000 </r>
       <r>     0.1734     0.0000    48.0000 </r>
       <r>     0.2921     0.0000    48.0000 </r>
       <r>     0.4109     0.0000    48.0000 </r>
       <r>     0.5296     0.0000    48.0000 </r>
       <r>     0.6484     0.0000    48.0000 </r>
       <r>     0.7671     0.0000    48.0000 </r>
       <r>     0.8859     0.0000    48.0000 </r>
       <r>     1.0047     0.0000    48.0000 </r>
       <r>     1.1234     0.0000    48.0000 </r>
       <r>     1.2422     0.0000    48.0000 </r>
       <r>     1.3609     0.0000    48.0000 </r>
       <r>     1.4797     0.0000    48.0000 </r>
       <r>     1.5984     0.0000    48.0000 </r>
       <r>     1.7172     0.0000    48.0000 </r>
       <r>     1.8359     0.0000    48.0000 </r>
       <r>     1.9547     0.0000    48.0000 </r>
       <r>     2.0734     0.0000    48.0000 </r>
       <r>     2.1922     0.0000    48.0000 </r>
       <r>     2.3109     0.0000    48.0000 </r>
       <r>     2.4297     0.0000    48.0000 </r>
       <r>     2.5484     0.0000    48.0000 </r>
       <r>     2.6672     0.0000    48.0000 </r>
       <r>     2.7859     0.0000    48.0000 </r>
       <r>     2.9047     0.0000    48.0000 </r>
       <r>     3.0234     0.0000    48.0000 </r>
       <r>     3.1422     0.0000    48.0000 </r>
       <r>     3.2609     0.0000    48.0000 </r>
       <r>     3.3797     0.0000    48.0000 </r>
       <r>     3.4985     0.0000    48.0000 </r>
       <r>     3.6172     0.0000    48.0000 </r>
       <r>     3.7360     0.0000    48.0000 </r>
       <r>     3.8547     0.0000    48.0000 </r>
       <r>     3.9735     0.0000    48.0000 </r>
       <r>     4.0922     0.0000    48.0000 </r>
       <r>     4.2110     0.0000    48.0000 </r>
       <r>     4.3297     0.0000    48.0000 </r>
       <r>     4.4485     0.0000    48.0000 </r>
       <r>     4.5672     0.0000    48.0000 </r>
       <r>     4.6860     0.0000    48.0000 </r>
       <r>     4.8047     0.0000    48.0000 </r>
       <r>     4.9235     0.0000    48.0000 </r>
       <r>     5.0422     0.0000    48.0000 </r>
       <r>     5.1610     0.0000    48.0000 </r>
       <r>     5.2797     0.0000    48.0000 </r>
       <r>     5.3985     0.0000    48.0000 </r>
       <r>     5.5172     0.0000    48.0000 </r>
       <r>     5.6360     0.0000    48.0000 </r>
       <r>     5.7547     0.0000    48.0000 </r>
       <r>     5.8735     0.0000    48.0000 </r>
       <r>     5.9923     0.0000    48.0000 </r>
       <r>     6.1110     0.0000    48.0000 </r>
       <r>     6.2298     0.0000    48.0000 </r>
       <r>     6.3485     0.0000    48.0000 </r>
       <r>     6.4673     0.0000    48.0000 </r>
       <r>     6.5860     0.0000    48.0000 </r>
       <r>     6.7048     0.0000    48.0000 </r>
       <r>     6.8235     0.0000    48.0000 </r>
       <r>     6.9423     0.0000    48.0000 </r>
       <r>     7.0610     0.0000    48.0000 </r>
       <r>     7.1798     0.0000    48.0000 </r>
       <r>     7.2985     0.0000    48.0000 </r>
       <r>     7.4173     0.0000    48.0000 </r>
       <r>     7.5360     0.0000    48.0000 </r>
       <r>     7.6548     0.0000    48.0000 </r>
       <r>     7.7735     0.0000    48.0000 </r>
       <r>     7.8923     0.0000    48.0000 </r>
       <r>     8.0110     0.0000    48.0000 </r>
       <r>     8.1298     0.0184    48.0022 </r>
       <r>     8.2485     0.1276    48.0189 </r>
       <r>     8.3673     0.1277    48.0341 </r>
       <r>     8.4861     0.3279    48.0806 </r>
       <r>     8.6048     0.5104    48.1477 </r>
       <r>     8.7236     0.1310    48.1633 </r>
       <r>     8.8423     0.6410    48.2541 </r>
       <r>     8.9611     0.1900    48.2839 </r>
       <r>     9.0798     0.4011    48.3317 </r>
       <r>     9.1986     0.5322    48.4079 </r>
       <r>     9.3173     1.3375    48.6247 </r>
       <r>     9.4361     2.6413    49.0068 </r>
       <r>     9.5548     3.0943    49.4659 </r>
       <r>     9.6736     2.8370    49.9127 </r>
       <r>     9.7923     3.6176    50.5054 </r>
       <r>     9.9111     2.5319    50.9522 </r>
       <r>    10.0298     3.1311    51.5385 </r>
       <r>    10.1486     3.0915    52.1550 </r>
       <r>    10.2673     4.0334    52.7744 </r>
       <r>    10.3861     3.1316    53.3416 </r>
       <r>    10.5048     3.5372    54.1701 </r>
       <r>    10.6236     4.5756    54.9449 </r>
       <r>    10.7423     2.9111    55.6184 </r>
       <r>    10.8611     4.8672    56.4947 </r>
       <r>    10.9798     4.0948    57.1757 </r>
       <r>    11.0986     8.5055    58.4343 </r>
       <r>    11.2174     5.5714    59.3813 </r>
       <r>    11.3361     4.6401    60.4298 </r>
       <r>    11.4549     5.1178    61.2744 </r>
       <r>    11.5736     5.3785    62.2675 </r>
       <r>    11.6924     7.1534    63.5540 </r>
       <r>    11.8111     5.7216    64.6188 </r>
       <r>    11.9299     6.6207    65.8468 </r>
       <r>    12.0486     8.7528    67.2061 </r>
       <r>    12.1674     5.4765    68.2337 </r>
       <r>    12.2861     9.4899    69.8694 </r>
       <r>    12.4049     6.3488    71.0418 </r>
       <r>    12.5236     7.9884    72.4562 </r>
       <r>    12.6424     5.3749    73.6080 </r>
       <r>    12.7611     5.5284    74.6035 </r>
       <r>    12.8799     4.0206    75.3562 </r>
       <r>    12.9986     3.8559    76.0488 </r>
       <r>    13.1174     4.2454    76.7390 </r>
       <r>    13.2361     3.4005    77.3053 </r>
       <r>    13.3549     6.4846    78.3761 </r>
       <r>    13.4736     1.9400    78.6622 </r>
       <r>    13.5924     0.6460    78.7964 </r>
       <r>    13.7112     1.2892    78.9637 </r>
       <r>    13.8299     1.7399    79.2596 </r>
       <r>    13.9487     1.6720    79.5622 </r>
       <r>    14.0674     1.3768    79.7847 </r>
       <r>    14.1862     0.3949    79.8499 </r>
       <r>    14.3049     0.4563    79.9178 </r>
       <r>    14.4237     0.1889    79.9618 </r>
       <r>    14.5424     0.0638    80.0000 </r>
       <r>    14.6612     0.0000    80.0000 </r>
       <r>    14.7799     0.0000    80.0000 </r>
       <r>    14.8987     0.0000    80.0000 </r>
       <r>    15.0174     0.0000    80.0000 </r>
       <r>    15.1362     0.0000    80.0000 </r>
       <r>    15.2549     0.0000    80.0000 </r>
       <r>    15.3737     0.0000    80.0000 </r>
       <r>    15.4924     0.0000    80.0000 </r>
       <r>    15.6112     0.0000    80.0000 </r>
       <r>    15.7299     0.0000    80.0000 </r>
       <r>    15.8487     0.0000    80.0000 </r>
       <r>    15.9674     0.0000    80.0000 </r>
       <r>    16.0862     0.0000    80.0000 </r>
      </set>
     </set>
    </array>
   </total>
  </dos>
 </calculation>
 <structure name="finalpos" >
  <crystal>
   <varray name="basis" >
    <v>       1.95429405       3.38493658       0.00000000 </v>
    <v>      -2.93144107       1.69246829       0.00000000 </v>
    <v>       0.00000000       0.00000000       9.56312345 </v>
   </varray>
   <i name="volume">    126.52321019 </i>
   <varray name="rec_basis" >
    <v>       0.12792343       0.22156988      -0.00000000 </v>
    <v>      -0.25584686       0.14771325       0.00000000 </v>
    <v>       0.00000000      -0.00000000       0.10456835 </v>
   </varray>
  </crystal>
  <varray name="positions" >
   <v>       0.25000000       0.16666667       0.08333333 </v>
   <v>       0.50000000       0.66666667       0.08333333 </v>
   <v>       0.75000000       0.16666667       0.08333333 </v>
   <v>       0.00000000       0.66666667       0.08333333 </v>
   <v>       0.25000000       0.16666667       0.41666667 </v>
   <v>       0.50000000       0.66666667       0.41666667 </v>
   <v>       0.75000000       0.16666667       0.41666667 </v>
   <v>       0.00000000       0.66666667       0.41666667 </v>
   <v>       0.25000000       0.16666667       0.75000000 </v>
   <v>       0.50000000       0.66666667       0.75000000 </v>
   <v>       0.75000000       0.16666667       0.75000000 </v>
   <v>       0.00000000       0.66666667       0.75000000 </v>
   <v>       0.25000000       0.83333333       0.25000000 </v>
   <v>       0.50000000       0.33333333       0.25000000 </v>
   <v>       0.75000000       0.83333333       0.25000000 </v>
   <v>       0.00000000       0.33333333       0.25000000 </v>
   <v>       0.25000000       0.83333333       0.58333333 </v>
   <v>       0.50000000       0.33333333       0.58333333 </v>
   <v>       0.75000000       0.83333333       0.58333333 </v>
   <v>       0.00000000       0.33333333       0.58333333 </v>
   <v>       0.25000000       0.83333333       0.91666667 </v>
   <v>       0.50000000       0.33333333       0.91666667 </v>
   <v>       0.75000000       0.83333333       0.91666667 </v>
   <v>       0.00000000       0.33333333       0.91666667 </v>
  </varray>
 </structure>
</modeling>
