<?xml version="1.0" encoding="ISO-8859-1"?>
<modeling>
 <generator>
  <i name="program" type="string">vasp </i>
  <i name="version" type="string">6.4.3  </i>
  <i name="subversion" type="string">19Mar24 (build Jun 20 2024 15:56:09) complex                          parallel </i>
  <i name="platform" type="string">LinuxNV_CrayMPICH </i>
  <i name="date" type="string">2025 01 13 </i>
  <i name="time" type="string">17:58:27 </i>
 </generator>
 <incar>
  <i type="string" name="PREC">Accurate</i>
  <i type="int" name="IBRION">    -1</i>
  <i name="EDIFF">      0.00000001</i>
  <i type="int" name="NSW">     0</i>
  <i name="ENCUT">    500.00000000</i>
  <i type="logical" name="LREAL"> F  </i>
  <i type="int" name="ISMEAR">     0</i>
  <i name="SIGMA">      0.01000000</i>
  <i type="logical" name="LWAVE"> F  </i>
  <i type="logical" name="LCHARG"> F  </i>
 </incar>
 <primitive_cell>
  <structure name="primitive_cell" >
   <crystal>
    <varray name="basis" >
     <v>      -2.72185119       2.72185119       5.44370237 </v>
     <v>       2.72185119      -5.44370237       2.72185119 </v>
     <v>       2.72185119       2.72185119       0.00000000 </v>
    </varray>
    <i name="volume">    161.31810740 </i>
    <varray name="rec_basis" >
     <v>      -0.04592463       0.04592463       0.13777388 </v>
     <v>       0.09184925      -0.09184925       0.09184925 </v>
     <v>       0.22962313       0.13777388       0.04592463 </v>
    </varray>
   </crystal>
   <varray name="positions" >
    <v>       1.00000000       0.00149989       1.00000000 </v>
    <v>       0.50000000       0.00000000       0.50000000 </v>
    <v>       0.25000000       0.50000000       0.75000000 </v>
    <v>       0.75000000       0.50000000       0.25000000 </v>
    <v>       0.18750000       0.12500000       0.56250000 </v>
    <v>       0.68750000       0.12500000       0.06250000 </v>
    <v>       0.43750000       0.62500000       0.31250000 </v>
    <v>       0.93750000       0.62500000       0.81250000 </v>
   </varray>
  </structure>
  <varray name="primitive_index" >
   <v type="int" >        1 </v>
   <v type="int" >        2 </v>
   <v type="int" >        3 </v>
   <v type="int" >        4 </v>
   <v type="int" >        5 </v>
   <v type="int" >        6 </v>
   <v type="int" >        7 </v>
   <v type="int" >        8 </v>
  </varray>
 </primitive_cell>
 <kpoints>
  <generation param="Gamma">
   <v type="int" name="divisions">       6        7       11 </v>
   <v name="usershift">      0.00000000       0.00000000       0.00000000 </v>
   <v name="genvec1">      0.16666667      -0.00000000      -0.00000000 </v>
   <v name="genvec2">     -0.00000000       0.14285714       0.00000000 </v>
   <v name="genvec3">      0.00000000      -0.00000000       0.09090909 </v>
   <v name="shift">      0.00000000       0.00000000       0.00000000 </v>
  </generation>
  <varray name="kpointlist" >
   <v>       0.00000000       0.00000000       0.00000000 </v>
   <v>       0.16666667       0.00000000       0.00000000 </v>
   <v>       0.33333333       0.00000000       0.00000000 </v>
   <v>       0.50000000       0.00000000       0.00000000 </v>
   <v>       0.00000000       0.14285714       0.00000000 </v>
   <v>       0.16666667       0.14285714       0.00000000 </v>
   <v>       0.33333333       0.14285714       0.00000000 </v>
   <v>       0.50000000       0.14285714       0.00000000 </v>
   <v>      -0.33333333       0.14285714       0.00000000 </v>
   <v>      -0.16666667       0.14285714       0.00000000 </v>
   <v>       0.00000000       0.28571429       0.00000000 </v>
   <v>       0.16666667       0.28571429       0.00000000 </v>
   <v>       0.33333333       0.28571429       0.00000000 </v>
   <v>       0.50000000       0.28571429       0.00000000 </v>
   <v>      -0.33333333       0.28571429       0.00000000 </v>
   <v>      -0.16666667       0.28571429       0.00000000 </v>
   <v>       0.00000000       0.42857143       0.00000000 </v>
   <v>       0.16666667       0.42857143       0.00000000 </v>
   <v>       0.33333333       0.42857143       0.00000000 </v>
   <v>       0.50000000       0.42857143       0.00000000 </v>
   <v>      -0.33333333       0.42857143       0.00000000 </v>
   <v>      -0.16666667       0.42857143       0.00000000 </v>
   <v>       0.00000000       0.00000000       0.09090909 </v>
   <v>       0.16666667       0.00000000       0.09090909 </v>
   <v>       0.33333333       0.00000000       0.09090909 </v>
   <v>       0.50000000       0.00000000       0.09090909 </v>
   <v>      -0.33333333       0.00000000       0.09090909 </v>
   <v>      -0.16666667       0.00000000       0.09090909 </v>
   <v>       0.00000000       0.14285714       0.09090909 </v>
   <v>       0.16666667       0.14285714       0.09090909 </v>
   <v>       0.33333333       0.14285714       0.09090909 </v>
   <v>       0.50000000       0.14285714       0.09090909 </v>
   <v>      -0.33333333       0.14285714       0.09090909 </v>
   <v>      -0.16666667       0.14285714       0.09090909 </v>
   <v>       0.00000000       0.28571429       0.09090909 </v>
   <v>       0.16666667       0.28571429       0.09090909 </v>
   <v>       0.33333333       0.28571429       0.09090909 </v>
   <v>       0.50000000       0.28571429       0.09090909 </v>
   <v>      -0.33333333       0.28571429       0.09090909 </v>
   <v>      -0.16666667       0.28571429       0.09090909 </v>
   <v>       0.00000000       0.42857143       0.09090909 </v>
   <v>       0.16666667       0.42857143       0.09090909 </v>
   <v>       0.33333333       0.42857143       0.09090909 </v>
   <v>       0.50000000       0.42857143       0.09090909 </v>
   <v>      -0.33333333       0.42857143       0.09090909 </v>
   <v>      -0.16666667       0.42857143       0.09090909 </v>
   <v>       0.00000000      -0.42857143       0.09090909 </v>
   <v>       0.16666667      -0.42857143       0.09090909 </v>
   <v>       0.33333333      -0.42857143       0.09090909 </v>
   <v>       0.50000000      -0.42857143       0.09090909 </v>
   <v>      -0.33333333      -0.42857143       0.09090909 </v>
   <v>      -0.16666667      -0.42857143       0.09090909 </v>
   <v>       0.00000000      -0.28571429       0.09090909 </v>
   <v>       0.16666667      -0.28571429       0.09090909 </v>
   <v>       0.33333333      -0.28571429       0.09090909 </v>
   <v>       0.50000000      -0.28571429       0.09090909 </v>
   <v>      -0.33333333      -0.28571429       0.09090909 </v>
   <v>      -0.16666667      -0.28571429       0.09090909 </v>
   <v>       0.00000000      -0.14285714       0.09090909 </v>
   <v>       0.16666667      -0.14285714       0.09090909 </v>
   <v>       0.33333333      -0.14285714       0.09090909 </v>
   <v>       0.50000000      -0.14285714       0.09090909 </v>
   <v>      -0.33333333      -0.14285714       0.09090909 </v>
   <v>      -0.16666667      -0.14285714       0.09090909 </v>
   <v>       0.00000000       0.00000000       0.18181818 </v>
   <v>       0.16666667       0.00000000       0.18181818 </v>
   <v>       0.33333333       0.00000000       0.18181818 </v>
   <v>       0.50000000       0.00000000       0.18181818 </v>
   <v>      -0.33333333       0.00000000       0.18181818 </v>
   <v>      -0.16666667       0.00000000       0.18181818 </v>
   <v>       0.00000000       0.14285714       0.18181818 </v>
   <v>       0.16666667       0.14285714       0.18181818 </v>
   <v>       0.33333333       0.14285714       0.18181818 </v>
   <v>       0.50000000       0.14285714       0.18181818 </v>
   <v>      -0.33333333       0.14285714       0.18181818 </v>
   <v>      -0.16666667       0.14285714       0.18181818 </v>
   <v>       0.00000000       0.28571429       0.18181818 </v>
   <v>       0.16666667       0.28571429       0.18181818 </v>
   <v>       0.33333333       0.28571429       0.18181818 </v>
   <v>       0.50000000       0.28571429       0.18181818 </v>
   <v>      -0.33333333       0.28571429       0.18181818 </v>
   <v>      -0.16666667       0.28571429       0.18181818 </v>
   <v>       0.00000000       0.42857143       0.18181818 </v>
   <v>       0.16666667       0.42857143       0.18181818 </v>
   <v>       0.33333333       0.42857143       0.18181818 </v>
   <v>       0.50000000       0.42857143       0.18181818 </v>
   <v>      -0.33333333       0.42857143       0.18181818 </v>
   <v>      -0.16666667       0.42857143       0.18181818 </v>
   <v>       0.00000000      -0.42857143       0.18181818 </v>
   <v>       0.16666667      -0.42857143       0.18181818 </v>
   <v>       0.33333333      -0.42857143       0.18181818 </v>
   <v>       0.50000000      -0.42857143       0.18181818 </v>
   <v>      -0.33333333      -0.42857143       0.18181818 </v>
   <v>      -0.16666667      -0.42857143       0.18181818 </v>
   <v>       0.00000000      -0.28571429       0.18181818 </v>
   <v>       0.16666667      -0.28571429       0.18181818 </v>
   <v>       0.33333333      -0.28571429       0.18181818 </v>
   <v>       0.50000000      -0.28571429       0.18181818 </v>
   <v>      -0.33333333      -0.28571429       0.18181818 </v>
   <v>      -0.16666667      -0.28571429       0.18181818 </v>
   <v>       0.00000000      -0.14285714       0.18181818 </v>
   <v>       0.16666667      -0.14285714       0.18181818 </v>
   <v>       0.33333333      -0.14285714       0.18181818 </v>
   <v>       0.50000000      -0.14285714       0.18181818 </v>
   <v>      -0.33333333      -0.14285714       0.18181818 </v>
   <v>      -0.16666667      -0.14285714       0.18181818 </v>
   <v>       0.00000000       0.00000000       0.27272727 </v>
   <v>       0.16666667       0.00000000       0.27272727 </v>
   <v>       0.33333333       0.00000000       0.27272727 </v>
   <v>       0.50000000       0.00000000       0.27272727 </v>
   <v>      -0.33333333       0.00000000       0.27272727 </v>
   <v>      -0.16666667       0.00000000       0.27272727 </v>
   <v>       0.00000000       0.14285714       0.27272727 </v>
   <v>       0.16666667       0.14285714       0.27272727 </v>
   <v>       0.33333333       0.14285714       0.27272727 </v>
   <v>       0.50000000       0.14285714       0.27272727 </v>
   <v>      -0.33333333       0.14285714       0.27272727 </v>
   <v>      -0.16666667       0.14285714       0.27272727 </v>
   <v>       0.00000000       0.28571429       0.27272727 </v>
   <v>       0.16666667       0.28571429       0.27272727 </v>
   <v>       0.33333333       0.28571429       0.27272727 </v>
   <v>       0.50000000       0.28571429       0.27272727 </v>
   <v>      -0.33333333       0.28571429       0.27272727 </v>
   <v>      -0.16666667       0.28571429       0.27272727 </v>
   <v>       0.00000000       0.42857143       0.27272727 </v>
   <v>       0.16666667       0.42857143       0.27272727 </v>
   <v>       0.33333333       0.42857143       0.27272727 </v>
   <v>       0.50000000       0.42857143       0.27272727 </v>
   <v>      -0.33333333       0.42857143       0.27272727 </v>
   <v>      -0.16666667       0.42857143       0.27272727 </v>
   <v>       0.00000000      -0.42857143       0.27272727 </v>
   <v>       0.16666667      -0.42857143       0.27272727 </v>
   <v>       0.33333333      -0.42857143       0.27272727 </v>
   <v>       0.50000000      -0.42857143       0.27272727 </v>
   <v>      -0.33333333      -0.42857143       0.27272727 </v>
   <v>      -0.16666667      -0.42857143       0.27272727 </v>
   <v>       0.00000000      -0.28571429       0.27272727 </v>
   <v>       0.16666667      -0.28571429       0.27272727 </v>
   <v>       0.33333333      -0.28571429       0.27272727 </v>
   <v>       0.50000000      -0.28571429       0.27272727 </v>
   <v>      -0.33333333      -0.28571429       0.27272727 </v>
   <v>      -0.16666667      -0.28571429       0.27272727 </v>
   <v>       0.00000000      -0.14285714       0.27272727 </v>
   <v>       0.16666667      -0.14285714       0.27272727 </v>
   <v>       0.33333333      -0.14285714       0.27272727 </v>
   <v>       0.50000000      -0.14285714       0.27272727 </v>
   <v>      -0.33333333      -0.14285714       0.27272727 </v>
   <v>      -0.16666667      -0.14285714       0.27272727 </v>
   <v>       0.00000000       0.00000000       0.36363636 </v>
   <v>       0.16666667       0.00000000       0.36363636 </v>
   <v>       0.33333333       0.00000000       0.36363636 </v>
   <v>       0.50000000       0.00000000       0.36363636 </v>
   <v>      -0.33333333       0.00000000       0.36363636 </v>
   <v>      -0.16666667       0.00000000       0.36363636 </v>
   <v>       0.00000000       0.14285714       0.36363636 </v>
   <v>       0.16666667       0.14285714       0.36363636 </v>
   <v>       0.33333333       0.14285714       0.36363636 </v>
   <v>       0.50000000       0.14285714       0.36363636 </v>
   <v>      -0.33333333       0.14285714       0.36363636 </v>
   <v>      -0.16666667       0.14285714       0.36363636 </v>
   <v>       0.00000000       0.28571429       0.36363636 </v>
   <v>       0.16666667       0.28571429       0.36363636 </v>
   <v>       0.33333333       0.28571429       0.36363636 </v>
   <v>       0.50000000       0.28571429       0.36363636 </v>
   <v>      -0.33333333       0.28571429       0.36363636 </v>
   <v>      -0.16666667       0.28571429       0.36363636 </v>
   <v>       0.00000000       0.42857143       0.36363636 </v>
   <v>       0.16666667       0.42857143       0.36363636 </v>
   <v>       0.33333333       0.42857143       0.36363636 </v>
   <v>       0.50000000       0.42857143       0.36363636 </v>
   <v>      -0.33333333       0.42857143       0.36363636 </v>
   <v>      -0.16666667       0.42857143       0.36363636 </v>
   <v>       0.00000000      -0.42857143       0.36363636 </v>
   <v>       0.16666667      -0.42857143       0.36363636 </v>
   <v>       0.33333333      -0.42857143       0.36363636 </v>
   <v>       0.50000000      -0.42857143       0.36363636 </v>
   <v>      -0.33333333      -0.42857143       0.36363636 </v>
   <v>      -0.16666667      -0.42857143       0.36363636 </v>
   <v>       0.00000000      -0.28571429       0.36363636 </v>
   <v>       0.16666667      -0.28571429       0.36363636 </v>
   <v>       0.33333333      -0.28571429       0.36363636 </v>
   <v>       0.50000000      -0.28571429       0.36363636 </v>
   <v>      -0.33333333      -0.28571429       0.36363636 </v>
   <v>      -0.16666667      -0.28571429       0.36363636 </v>
   <v>       0.00000000      -0.14285714       0.36363636 </v>
   <v>       0.16666667      -0.14285714       0.36363636 </v>
   <v>       0.33333333      -0.14285714       0.36363636 </v>
   <v>       0.50000000      -0.14285714       0.36363636 </v>
   <v>      -0.33333333      -0.14285714       0.36363636 </v>
   <v>      -0.16666667      -0.14285714       0.36363636 </v>
   <v>       0.00000000       0.00000000       0.45454545 </v>
   <v>       0.16666667       0.00000000       0.45454545 </v>
   <v>       0.33333333       0.00000000       0.45454545 </v>
   <v>       0.50000000       0.00000000       0.45454545 </v>
   <v>      -0.33333333       0.00000000       0.45454545 </v>
   <v>      -0.16666667       0.00000000       0.45454545 </v>
   <v>       0.00000000       0.14285714       0.45454545 </v>
   <v>       0.16666667       0.14285714       0.45454545 </v>
   <v>       0.33333333       0.14285714       0.45454545 </v>
   <v>       0.50000000       0.14285714       0.45454545 </v>
   <v>      -0.33333333       0.14285714       0.45454545 </v>
   <v>      -0.16666667       0.14285714       0.45454545 </v>
   <v>       0.00000000       0.28571429       0.45454545 </v>
   <v>       0.16666667       0.28571429       0.45454545 </v>
   <v>       0.33333333       0.28571429       0.45454545 </v>
   <v>       0.50000000       0.28571429       0.45454545 </v>
   <v>      -0.33333333       0.28571429       0.45454545 </v>
   <v>      -0.16666667       0.28571429       0.45454545 </v>
   <v>       0.00000000       0.42857143       0.45454545 </v>
   <v>       0.16666667       0.42857143       0.45454545 </v>
   <v>       0.33333333       0.42857143       0.45454545 </v>
   <v>       0.50000000       0.42857143       0.45454545 </v>
   <v>      -0.33333333       0.42857143       0.45454545 </v>
   <v>      -0.16666667       0.42857143       0.45454545 </v>
   <v>       0.00000000      -0.42857143       0.45454545 </v>
   <v>       0.16666667      -0.42857143       0.45454545 </v>
   <v>       0.33333333      -0.42857143       0.45454545 </v>
   <v>       0.50000000      -0.42857143       0.45454545 </v>
   <v>      -0.33333333      -0.42857143       0.45454545 </v>
   <v>      -0.16666667      -0.42857143       0.45454545 </v>
   <v>       0.00000000      -0.28571429       0.45454545 </v>
   <v>       0.16666667      -0.28571429       0.45454545 </v>
   <v>       0.33333333      -0.28571429       0.45454545 </v>
   <v>       0.50000000      -0.28571429       0.45454545 </v>
   <v>      -0.33333333      -0.28571429       0.45454545 </v>
   <v>      -0.16666667      -0.28571429       0.45454545 </v>
   <v>       0.00000000      -0.14285714       0.45454545 </v>
   <v>       0.16666667      -0.14285714       0.45454545 </v>
   <v>       0.33333333      -0.14285714       0.45454545 </v>
   <v>       0.50000000      -0.14285714       0.45454545 </v>
   <v>      -0.33333333      -0.14285714       0.45454545 </v>
   <v>      -0.16666667      -0.14285714       0.45454545 </v>
  </varray>
  <varray name="weights" >
   <v>       0.00216450 </v>
   <v>       0.00432900 </v>
   <v>       0.00432900 </v>
   <v>       0.00216450 </v>
   <v>       0.00432900 </v>
   <v>       0.00432900 </v>
   <v>       0.00432900 </v>
   <v>       0.00432900 </v>
   <v>       0.00432900 </v>
   <v>       0.00432900 </v>
   <v>       0.00432900 </v>
   <v>       0.00432900 </v>
   <v>       0.00432900 </v>
   <v>       0.00432900 </v>
   <v>       0.00432900 </v>
   <v>       0.00432900 </v>
   <v>       0.00432900 </v>
   <v>       0.00432900 </v>
   <v>       0.00432900 </v>
   <v>       0.00432900 </v>
   <v>       0.00432900 </v>
   <v>       0.00432900 </v>
   <v>       0.00432900 </v>
   <v>       0.00432900 </v>
   <v>       0.00432900 </v>
   <v>       0.00432900 </v>
   <v>       0.00432900 </v>
   <v>       0.00432900 </v>
   <v>       0.00432900 </v>
   <v>       0.00432900 </v>
   <v>       0.00432900 </v>
   <v>       0.00432900 </v>
   <v>       0.00432900 </v>
   <v>       0.00432900 </v>
   <v>       0.00432900 </v>
   <v>       0.00432900 </v>
   <v>       0.00432900 </v>
   <v>       0.00432900 </v>
   <v>       0.00432900 </v>
   <v>       0.00432900 </v>
   <v>       0.00432900 </v>
   <v>       0.00432900 </v>
   <v>       0.00432900 </v>
   <v>       0.00432900 </v>
   <v>       0.00432900 </v>
   <v>       0.00432900 </v>
   <v>       0.00432900 </v>
   <v>       0.00432900 </v>
   <v>       0.00432900 </v>
   <v>       0.00432900 </v>
   <v>       0.00432900 </v>
   <v>       0.00432900 </v>
   <v>       0.00432900 </v>
   <v>       0.00432900 </v>
   <v>       0.00432900 </v>
   <v>       0.00432900 </v>
   <v>       0.00432900 </v>
   <v>       0.00432900 </v>
   <v>       0.00432900 </v>
   <v>       0.00432900 </v>
   <v>       0.00432900 </v>
   <v>       0.00432900 </v>
   <v>       0.00432900 </v>
   <v>       0.00432900 </v>
   <v>       0.00432900 </v>
   <v>       0.00432900 </v>
   <v>       0.00432900 </v>
   <v>       0.00432900 </v>
   <v>       0.00432900 </v>
   <v>       0.00432900 </v>
   <v>       0.00432900 </v>
   <v>       0.00432900 </v>
   <v>       0.00432900 </v>
   <v>       0.00432900 </v>
   <v>       0.00432900 </v>
   <v>       0.00432900 </v>
   <v>       0.00432900 </v>
   <v>       0.00432900 </v>
   <v>       0.00432900 </v>
   <v>       0.00432900 </v>
   <v>       0.00432900 </v>
   <v>       0.00432900 </v>
   <v>       0.00432900 </v>
   <v>       0.00432900 </v>
   <v>       0.00432900 </v>
   <v>       0.00432900 </v>
   <v>       0.00432900 </v>
   <v>       0.00432900 </v>
   <v>       0.00432900 </v>
   <v>       0.00432900 </v>
   <v>       0.00432900 </v>
   <v>       0.00432900 </v>
   <v>       0.00432900 </v>
   <v>       0.00432900 </v>
   <v>       0.00432900 </v>
   <v>       0.00432900 </v>
   <v>       0.00432900 </v>
   <v>       0.00432900 </v>
   <v>       0.00432900 </v>
   <v>       0.00432900 </v>
   <v>       0.00432900 </v>
   <v>       0.00432900 </v>
   <v>       0.00432900 </v>
   <v>       0.00432900 </v>
   <v>       0.00432900 </v>
   <v>       0.00432900 </v>
   <v>       0.00432900 </v>
   <v>       0.00432900 </v>
   <v>       0.00432900 </v>
   <v>       0.00432900 </v>
   <v>       0.00432900 </v>
   <v>       0.00432900 </v>
   <v>       0.00432900 </v>
   <v>       0.00432900 </v>
   <v>       0.00432900 </v>
   <v>       0.00432900 </v>
   <v>       0.00432900 </v>
   <v>       0.00432900 </v>
   <v>       0.00432900 </v>
   <v>       0.00432900 </v>
   <v>       0.00432900 </v>
   <v>       0.00432900 </v>
   <v>       0.00432900 </v>
   <v>       0.00432900 </v>
   <v>       0.00432900 </v>
   <v>       0.00432900 </v>
   <v>       0.00432900 </v>
   <v>       0.00432900 </v>
   <v>       0.00432900 </v>
   <v>       0.00432900 </v>
   <v>       0.00432900 </v>
   <v>       0.00432900 </v>
   <v>       0.00432900 </v>
   <v>       0.00432900 </v>
   <v>       0.00432900 </v>
   <v>       0.00432900 </v>
   <v>       0.00432900 </v>
   <v>       0.00432900 </v>
   <v>       0.00432900 </v>
   <v>       0.00432900 </v>
   <v>       0.00432900 </v>
   <v>       0.00432900 </v>
   <v>       0.00432900 </v>
   <v>       0.00432900 </v>
   <v>       0.00432900 </v>
   <v>       0.00432900 </v>
   <v>       0.00432900 </v>
   <v>       0.00432900 </v>
   <v>       0.00432900 </v>
   <v>       0.00432900 </v>
   <v>       0.00432900 </v>
   <v>       0.00432900 </v>
   <v>       0.00432900 </v>
   <v>       0.00432900 </v>
   <v>       0.00432900 </v>
   <v>       0.00432900 </v>
   <v>       0.00432900 </v>
   <v>       0.00432900 </v>
   <v>       0.00432900 </v>
   <v>       0.00432900 </v>
   <v>       0.00432900 </v>
   <v>       0.00432900 </v>
   <v>       0.00432900 </v>
   <v>       0.00432900 </v>
   <v>       0.00432900 </v>
   <v>       0.00432900 </v>
   <v>       0.00432900 </v>
   <v>       0.00432900 </v>
   <v>       0.00432900 </v>
   <v>       0.00432900 </v>
   <v>       0.00432900 </v>
   <v>       0.00432900 </v>
   <v>       0.00432900 </v>
   <v>       0.00432900 </v>
   <v>       0.00432900 </v>
   <v>       0.00432900 </v>
   <v>       0.00432900 </v>
   <v>       0.00432900 </v>
   <v>       0.00432900 </v>
   <v>       0.00432900 </v>
   <v>       0.00432900 </v>
   <v>       0.00432900 </v>
   <v>       0.00432900 </v>
   <v>       0.00432900 </v>
   <v>       0.00432900 </v>
   <v>       0.00432900 </v>
   <v>       0.00432900 </v>
   <v>       0.00432900 </v>
   <v>       0.00432900 </v>
   <v>       0.00432900 </v>
   <v>       0.00432900 </v>
   <v>       0.00432900 </v>
   <v>       0.00432900 </v>
   <v>       0.00432900 </v>
   <v>       0.00432900 </v>
   <v>       0.00432900 </v>
   <v>       0.00432900 </v>
   <v>       0.00432900 </v>
   <v>       0.00432900 </v>
   <v>       0.00432900 </v>
   <v>       0.00432900 </v>
   <v>       0.00432900 </v>
   <v>       0.00432900 </v>
   <v>       0.00432900 </v>
   <v>       0.00432900 </v>
   <v>       0.00432900 </v>
   <v>       0.00432900 </v>
   <v>       0.00432900 </v>
   <v>       0.00432900 </v>
   <v>       0.00432900 </v>
   <v>       0.00432900 </v>
   <v>       0.00432900 </v>
   <v>       0.00432900 </v>
   <v>       0.00432900 </v>
   <v>       0.00432900 </v>
   <v>       0.00432900 </v>
   <v>       0.00432900 </v>
   <v>       0.00432900 </v>
   <v>       0.00432900 </v>
   <v>       0.00432900 </v>
   <v>       0.00432900 </v>
   <v>       0.00432900 </v>
   <v>       0.00432900 </v>
   <v>       0.00432900 </v>
   <v>       0.00432900 </v>
   <v>       0.00432900 </v>
   <v>       0.00432900 </v>
   <v>       0.00432900 </v>
   <v>       0.00432900 </v>
   <v>       0.00432900 </v>
   <v>       0.00432900 </v>
   <v>       0.00432900 </v>
  </varray>
 </kpoints>
 <parameters>
  <separator name="general" >
   <i type="string" name="SYSTEM">unknown system</i>
   <i type="logical" name="LCOMPAT"> F  </i>
  </separator>
  <separator name="electronic" >
   <i type="string" name="PREC">accura</i>
   <i name="ENMAX">    500.00000000</i>
   <i name="ENAUG">    322.06900000</i>
   <i name="EDIFF">      0.00000001</i>
   <i type="int" name="IALGO">    38</i>
   <i type="int" name="IWAVPR">    10</i>
   <i type="int" name="NBANDS">    24</i>
   <i type="int" name="NBANDSLOW">    -1</i>
   <i type="int" name="NBANDSHIGH">    -1</i>
   <i name="NELECT">     32.00000000</i>
   <i type="int" name="TURBO">     0</i>
   <i type="int" name="IRESTART">     0</i>
   <i type="int" name="NREBOOT">     0</i>
   <i type="int" name="NMIN">     0</i>
   <i name="EREF">      0.00000000</i>
   <separator name="electronic smearing" >
    <i type="int" name="ISMEAR">     0</i>
    <i name="SIGMA">      0.01000000</i>
    <i name="KSPACING">      0.50000000</i>
    <i type="logical" name="KGAMMA"> T  </i>
    <i type="logical" name="KBLOWUP"> F  </i>
   </separator>
   <separator name="electronic projectors" >
    <i type="logical" name="LREAL"> F  </i>
    <v name="ROPT">      0.00000000</v>
    <i type="int" name="LMAXPAW">  -100</i>
    <i type="int" name="LMAXMIX">     2</i>
    <i type="logical" name="NLSPLINE"> F  </i>
   </separator>
   <separator name="electronic startup" >
    <i type="int" name="ISTART">     0</i>
    <i type="int" name="ICHARG">     2</i>
    <i type="int" name="INIWAV">     1</i>
   </separator>
   <separator name="electronic spin" >
    <i type="int" name="ISPIN">     1</i>
    <i type="logical" name="LNONCOLLINEAR"> F  </i>
    <v name="MAGMOM">      1.00000000      1.00000000      1.00000000      1.00000000      1.00000000      1.00000000      1.00000000      1.00000000</v>
    <i name="NUPDOWN">     -1.00000000</i>
    <i type="logical" name="LSORBIT"> F  </i>
    <v name="SAXIS">      0.00000000      0.00000000      1.00000000</v>
    <i type="logical" name="LSPIRAL"> F  </i>
    <v name="QSPIRAL">      0.00000000      0.00000000      0.00000000</v>
    <i type="logical" name="LZEROZ"> F  </i>
   </separator>
   <separator name="electronic exchange-correlation" >
    <i type="logical" name="LASPH"> F  </i>
   </separator>
   <separator name="electronic convergence" >
    <i type="int" name="NELM">    60</i>
    <i type="int" name="NELMDL">    -5</i>
    <i type="int" name="NELMIN">     2</i>
    <i name="ENINI">    500.00000000</i>
    <separator name="electronic convergence detail" >
     <i type="logical" name="LDIAG"> T  </i>
     <i type="logical" name="LSUBROT"> F  </i>
     <i name="WEIMIN">      0.00000000</i>
     <i name="EBREAK">      0.00000000</i>
     <i name="DEPER">      0.30000000</i>
     <i type="int" name="NRMM">     4</i>
     <i name="TIME">      0.40000000</i>
    </separator>
   </separator>
   <separator name="electronic mixer" >
    <i name="AMIX">      0.40000000</i>
    <i name="BMIX">      1.00000000</i>
    <i name="AMIN">      0.10000000</i>
    <i name="AMIX_MAG">      1.60000000</i>
    <i name="BMIX_MAG">      1.00000000</i>
    <separator name="electronic mixer details" >
     <i type="int" name="IMIX">     4</i>
     <i type="logical" name="MIXFIRST"> F  </i>
     <i type="int" name="MAXMIX">   -45</i>
     <i name="WC">    100.00000000</i>
     <i type="int" name="INIMIX">     1</i>
     <i type="int" name="MIXPRE">     1</i>
     <i type="int" name="MREMOVE">     5</i>
    </separator>
   </separator>
   <separator name="electronic dipolcorrection" >
    <i type="logical" name="LDIPOL"> F  </i>
    <i type="logical" name="LMONO"> F  </i>
    <i type="int" name="IDIPOL">     0</i>
    <i name="EPSILON">      1.00000000</i>
    <v name="DIPOL">   -100.00000000   -100.00000000   -100.00000000</v>
    <i name="EFIELD">      0.00000000</i>
    <i type="logical" name="LVACPOTAV"> F  </i>
   </separator>
  </separator>
  <separator name="grids" >
   <i type="int" name="NGX">    50</i>
   <i type="int" name="NGY">    50</i>
   <i type="int" name="NGZ">    28</i>
   <i type="int" name="NGXF">   100</i>
   <i type="int" name="NGYF">   100</i>
   <i type="int" name="NGZF">    56</i>
   <i type="logical" name="ADDGRID"> F  </i>
  </separator>
  <separator name="ionic" >
   <i type="int" name="NSW">     0</i>
   <i type="int" name="IBRION">    -1</i>
   <i type="int" name="MDALGO">     0</i>
   <i type="int" name="ISIF">     2</i>
   <i name="PSTRESS">      0.00000000</i>
   <i name="EDIFFG">      0.00000010</i>
   <i type="int" name="NFREE">     0</i>
   <i name="POTIM">      0.50000000</i>
   <i name="SMASS">     -3.00000000</i>
   <i name="SCALEE">      1.00000000</i>
  </separator>
  <separator name="ionic md" >
   <i name="TEBEG">      0.00010000</i>
   <i name="TEEND">      0.00010000</i>
   <i type="int" name="NBLOCK">     1</i>
   <i type="int" name="KBLOCK">     1</i>
   <i type="int" name="NPACO">   256</i>
   <i name="APACO">     10.00000000</i>
  </separator>
  <separator name="symmetry" >
   <i type="int" name="ISYM">     2</i>
   <i name="SYMPREC">      0.00001000</i>
  </separator>
  <separator name="dos" >
   <i type="int" name="LORBIT">     0</i>
   <v name="RWIGS">     -1.00000000</v>
   <i type="int" name="NEDOS">   301</i>
   <i name="EMIN">     10.00000000</i>
   <i name="EMAX">    -10.00000000</i>
   <i name="EFERMI">      0.00000000</i>
  </separator>
  <separator name="writing" >
   <i type="int" name="NWRITE">     2</i>
   <i type="logical" name="LWAVE"> F  </i>
   <i type="logical" name="LDOWNSAMPLE"> F  </i>
   <i type="logical" name="LCHARG"> F  </i>
   <i type="logical" name="LPARD"> F  </i>
   <i type="logical" name="LVTOT"> F  </i>
   <i type="logical" name="LVHAR"> F  </i>
   <i type="logical" name="LELF"> F  </i>
   <i type="logical" name="LOPTICS"> F  </i>
   <v name="STM">      0.00000000      0.00000000      0.00000000      0.00000000      0.00000000      0.00000000      0.00000000</v>
  </separator>
  <separator name="performance" >
   <i type="int" name="NPAR">     8</i>
   <i type="int" name="NSIM">     4</i>
   <i type="int" name="NBLK">    -1</i>
   <i type="logical" name="LPLANE"> T  </i>
   <i type="logical" name="LSCALAPACK"> T  </i>
   <i type="logical" name="LSCAAWARE"> F  </i>
   <i type="logical" name="LSCALU"> F  </i>
   <i type="logical" name="LASYNC"> F  </i>
   <i type="logical" name="LORBITALREAL"> F  </i>
  </separator>
  <separator name="miscellaneous" >
   <i type="int" name="IDIOT">     3</i>
   <i type="int" name="PHON_NSTRUCT">    -1</i>
   <i type="logical" name="LMUSIC"> F  </i>
   <v name="POMASS">     28.08500000</v>
   <v name="DARWINR">      0.00000000</v>
   <v name="DARWINV">      1.00000000</v>
   <i type="logical" name="LCORR"> T  </i>
  </separator>
  <i type="logical" name="GGA_COMPAT"> T  </i>
  <i type="logical" name="LBERRY"> F  </i>
  <i type="int" name="ICORELEVEL">     0</i>
  <i type="logical" name="LDAU"> F  </i>
  <i type="int" name="I_CONSTRAINED_M">     0</i>
  <separator name="electronic exchange-correlation" >
   <i type="string" name="GGA    ">PE</i>
   <i type="string" name="XC_C">1</i>
   <i type="int" name="VOSKOWN">     0</i>
   <i type="logical" name="LHFCALC"> F  </i>
   <i type="string" name="PRECFOCK"></i>
   <i type="logical" name="LSYMGRAD"> F  </i>
   <i type="logical" name="LHFONE"> F  </i>
   <i type="logical" name="LRHFCALC"> F  </i>
   <i type="logical" name="LTHOMAS"> F  </i>
   <i type="logical" name="LMODELHF"> F  </i>
   <i type="logical" name="LFOCKACE"> F  </i>
   <i name="ENCUT4O">     -1.00000000</i>
   <i type="int" name="EXXOEP">     0</i>
   <i type="int" name="FOURORBIT">     0</i>
   <i name="AEXX">      0.00000000</i>
   <i name="HFALPHA">      0.00000000</i>
   <i name="MCALPHA">      0.00000000</i>
   <i name="ALDAX">      1.00000000</i>
   <i name="AGGAX">      1.00000000</i>
   <i name="AMGGAX">      1.00000000</i>
   <i name="ALDAC">      1.00000000</i>
   <i name="AGGAC">      1.00000000</i>
   <i name="AMGGAC">      1.00000000</i>
   <i type="int" name="NKREDX">     1</i>
   <i type="int" name="NKREDY">     1</i>
   <i type="int" name="NKREDZ">     1</i>
   <i type="logical" name="SHIFTRED"> F  </i>
   <i type="logical" name="ODDONLY"> F  </i>
   <i type="logical" name="EVENONLY"> F  </i>
   <i type="int" name="LMAXFOCK">     0</i>
   <i type="int" name="NMAXFOCKAE">     0</i>
   <i type="logical" name="LFOCKAEDFT"> F  </i>
   <i name="HFSCREEN">      0.00000000</i>
   <i name="HFSCREENC">      0.00000000</i>
   <i type="int" name="NBANDSGWLOW">     0</i>
  </separator>
  <separator name="vdW DFT" >
   <i type="logical" name="LUSE_VDW"> F  </i>
   <i type="int" name="IVDW_NL">    -1</i>
   <i type="logical" name="LSPIN_VDW"> F  </i>
   <i name="ZAB_VDW">     -0.84910000</i>
   <i name="GAMMA_VDW">      1.39626340</i>
   <i name="ALPHA_VDW">      0.00000000</i>
   <i name="PARAM1">      0.12340000</i>
   <i name="PARAM2">      1.00000000</i>
   <i name="BPARAM">      6.30000000</i>
   <i name="CPARAM">      0.00930000</i>
  </separator>
  <separator name="model GW" >
   <i type="int" name="MODEL_GW">     0</i>
   <i name="MODEL_EPS0">     12.09885805</i>
   <i name="MODEL_ALPHA">      1.00000000</i>
  </separator>
  <separator name="linear response parameters" >
   <i type="logical" name="LEPSILON"> F  </i>
   <i type="logical" name="LRPA"> F  </i>
   <i type="logical" name="LNABLA"> F  </i>
   <i type="logical" name="LVEL"> F  </i>
   <i name="CSHIFT">      0.10000000</i>
   <i name="OMEGAMAX">     -1.00000000</i>
   <i name="DEG_THRESHOLD">      0.00200000</i>
   <i name="RTIME">     -0.10000000</i>
   <i name="WPLASMAI">      0.00000000</i>
   <v name="DFIELD">      0.00000000      0.00000000      0.00000000</v>
   <v name="WPLASMA">      0.00000000      0.00000000      0.00000000      0.00000000      0.00000000      0.00000000      0.00000000      0.00000000      0.00000000</v>
  </separator>
  <separator name="orbital magnetization" >
   <i type="logical" name="NUCIND"> F  </i>
   <v name="MAGPOS">      0.00000000      0.00000000      0.00000000</v>
   <i type="logical" name="LNICSALL"> T  </i>
   <i type="logical" name="ORBITALMAG"> F  </i>
   <i type="logical" name="LMAGBLOCH"> F  </i>
   <i type="logical" name="LCHIMAG"> F  </i>
   <i type="logical" name="LGAUGE"> T  </i>
   <i type="int" name="MAGATOM">     0</i>
   <v name="MAGDIPOL">      0.00000000      0.00000000      0.00000000</v>
   <v name="AVECCONST">      0.00000000      0.00000000      0.00000000</v>
  </separator>
  <separator name="response functions" >
   <i type="logical" name="LALL_IN_ONE"> F  </i>
   <i type="int" name="IALL_IN_ONE">    -1</i>
   <i type="int" name="NBANDS_WAVE">    -1</i>
   <i type="logical" name="LFINITE_TEMPERATURE"> F  </i>
   <i type="logical" name="LADDER"> F  </i>
   <i type="logical" name="LRPAFORCE"> F  </i>
   <i type="logical" name="LFXC"> F  </i>
   <i type="logical" name="LHARTREE"> T  </i>
   <i type="int" name="IBSE">     0</i>
   <v type="int" name="KPOINT">    -1     0     0     0</v>
   <i type="logical" name="LTCTC"> F  </i>
   <i type="logical" name="LTCTE"> F  </i>
   <i type="logical" name="LTETE"> F  </i>
   <i type="logical" name="LTRIPLET"> F  </i>
   <i type="logical" name="LFXCEPS"> F  </i>
   <i type="logical" name="LFXHEG"> F  </i>
   <i type="int" name="NATURALO">     2</i>
   <i type="logical" name="LHOLEGF"> F  </i>
   <i type="logical" name="L2ORDER"> F  </i>
   <i type="logical" name="LDMP1"> F  </i>
   <i type="logical" name="LMP2LT"> F  </i>
   <i type="logical" name="LSMP2LT"> F  </i>
   <i type="logical" name="LGWLF"> F  </i>
   <i name="ENCUTGW">     -1.60000002</i>
   <i name="ENCUTGWSOFT">     -1.60000002</i>
   <i name="ENCUTLF">     -1.00000000</i>
   <i type="logical" name="ESF_SPLINES"> F  </i>
   <i name="ESF_CONV">      0.01000000</i>
   <i type="int" name="ESF_NINTER">    15</i>
   <i type="int" name="LMAXMP2">    -1</i>
   <i name="SCISSOR">      0.00000000</i>
   <i type="int" name="NOMEGA">     0</i>
   <i type="int" name="NOMEGAR">     0</i>
   <i type="int" name="NBANDSGW">    -1</i>
   <i type="int" name="NBANDSO">    -1</i>
   <i type="int" name="NBANDSV">    -1</i>
   <i type="int" name="NELMGW">     1</i>
   <i type="int" name="NELMHF">     1</i>
   <i type="int" name="DIM">     3</i>
   <i type="int" name="IESPILON">     4</i>
   <i type="int" name="ANTIRES">     0</i>
   <i name="OMEGAMAX">    -30.00000000</i>
   <i name="OMEGAMIN">    -30.00000000</i>
   <i name="OMEGATL">   -200.00000000</i>
   <i type="int" name="OMEGAGRID">     0</i>
   <i name="CSHIFT">     -0.10000000</i>
   <i type="logical" name="LSELFENERGY"> F  </i>
   <i type="logical" name="LSPECTRAL"> F  </i>
   <i type="logical" name="LSPECTRALGW"> F  </i>
   <i type="logical" name="LSINGLES"> F  </i>
   <i type="logical" name="LFERMIGW"> F  </i>
   <i type="logical" name="ODDONLYGW"> F  </i>
   <i type="logical" name="EVENONLYGW"> F  </i>
   <i type="int" name="NKREDLFX">     1</i>
   <i type="int" name="NKREDLFY">     1</i>
   <i type="int" name="NKREDLFZ">     1</i>
   <i type="int" name="MAXMEM">  2800</i>
   <i type="int" name="TELESCOPE">     0</i>
   <i type="int" name="NTAUPAR">    -1</i>
   <i type="int" name="NOMEGAPAR">    -1</i>
   <i name="DAMP_NEWTON">      0.80000001</i>
   <i name="LAMBDA">      1.00000000</i>
  </separator>
  <separator name="External order field" >
   <i name="OFIELD_KAPPA">      0.00000000</i>
   <v name="OFIELD_K">      0.00000000      0.00000000      0.00000000</v>
   <i name="OFIELD_Q6_NEAR">      0.00000000</i>
   <i name="OFIELD_Q6_FAR">      0.00000000</i>
   <i name="OFIELD_A">      0.00000000</i>
  </separator>
  <separator name="optional k-points parameters" >
   <i type="int" name="KPOINTS_OPT_MODE">     1</i>
   <i type="logical" name="LKPOINTS_OPT"> F  </i>
  </separator>
 </parameters>
 <atominfo>
  <atoms>       8 </atoms>
  <types>       1 </types>
  <array name="atoms" >
   <dimension dim="1">ion</dimension>
   <field type="string">element</field>
   <field type="int">atomtype</field>
   <set>
    <rc><c>Si</c><c>   1</c></rc>
    <rc><c>Si</c><c>   1</c></rc>
    <rc><c>Si</c><c>   1</c></rc>
    <rc><c>Si</c><c>   1</c></rc>
    <rc><c>Si</c><c>   1</c></rc>
    <rc><c>Si</c><c>   1</c></rc>
    <rc><c>Si</c><c>   1</c></rc>
    <rc><c>Si</c><c>   1</c></rc>
   </set>
  </array>
  <array name="atomtypes" >
   <dimension dim="1">type</dimension>
   <field type="int">atomspertype</field>
   <field type="string">element</field>
   <field>mass</field>
   <field>valence</field>
   <field type="string">pseudopotential</field>
   <set>
    <rc><c>   8</c><c>Si</c><c>     28.08500000</c><c>      4.00000000</c><c>  PAW_PBE Si 05Jan2001                  </c></rc>
   </set>
  </array>
 </atominfo>
 <structure name="initialpos" >
  <crystal>
   <varray name="basis" >
    <v>      -2.72185119       2.72185119       5.44370237 </v>
    <v>       2.72185119      -5.44370237       2.72185119 </v>
    <v>       2.72185119       2.72185119       0.00000000 </v>
   </varray>
   <i name="volume">    161.31810740 </i>
   <varray name="rec_basis" >
    <v>      -0.04592463       0.04592463       0.13777388 </v>
    <v>       0.09184925      -0.09184925       0.09184925 </v>
    <v>       0.22962313       0.13777388       0.04592463 </v>
   </varray>
  </crystal>
  <varray name="positions" >
   <v>       0.00000000       0.00149989       0.00000000 </v>
   <v>       0.50000000       0.00000000       0.50000000 </v>
   <v>       0.25000000       0.50000000       0.75000000 </v>
   <v>       0.75000000       0.50000000       0.25000000 </v>
   <v>       0.18750000       0.12500000       0.56250000 </v>
   <v>       0.68750000       0.12500000       0.06250000 </v>
   <v>       0.43750000       0.62500000       0.31250000 </v>
   <v>       0.93750000       0.62500000       0.81250000 </v>
  </varray>
 </structure>
 <calculation>
  <scstep>
   <time name="dav">    1.21    1.21</time>
   <time name="total">    1.23    1.23</time>
   <energy>
    <i name="alphaZ">     13.35522965 </i>
    <i name="ewald">   -911.95054765 </i>
    <i name="hartreedc">    -44.46061186 </i>
    <i name="XCdc">    -74.52612295 </i>
    <i name="pawpsdc">    704.99039692 </i>
    <i name="pawaedc">   -564.24414232 </i>
    <i name="eentropy">     -0.00007692 </i>
    <i name="bandstr">    119.31694767 </i>
    <i name="atom">    824.53005375 </i>
    <i name="e_fr_energy">     67.01112629 </i>
    <i name="e_wo_entrp">     67.01120321 </i>
    <i name="e_0_energy">     67.01116475 </i>
   </energy>
  </scstep>
  <scstep>
   <time name="dav">    1.42    1.43</time>
   <time name="total">    1.42    1.43</time>
   <energy>
    <i name="e_fr_energy">    -38.89732862 </i>
    <i name="e_wo_entrp">    -38.89732862 </i>
    <i name="e_0_energy">    -38.89732862 </i>
   </energy>
  </scstep>
  <scstep>
   <time name="dav">    1.45    1.46</time>
   <time name="total">    1.45    1.46</time>
   <energy>
    <i name="e_fr_energy">    -44.00047936 </i>
    <i name="e_wo_entrp">    -44.00047936 </i>
    <i name="e_0_energy">    -44.00047936 </i>
   </energy>
  </scstep>
  <scstep>
   <time name="dav">    1.37    1.37</time>
   <time name="total">    1.37    1.37</time>
   <energy>
    <i name="e_fr_energy">    -44.09114441 </i>
    <i name="e_wo_entrp">    -44.09114441 </i>
    <i name="e_0_energy">    -44.09114441 </i>
   </energy>
  </scstep>
  <scstep>
   <time name="dav">    1.44    1.45</time>
   <time name="total">    1.49    1.49</time>
   <energy>
    <i name="e_fr_energy">    -44.09346135 </i>
    <i name="e_wo_entrp">    -44.09346135 </i>
    <i name="e_0_energy">    -44.09346135 </i>
   </energy>
  </scstep>
  <scstep>
   <time name="dav">    1.34    1.34</time>
   <time name="total">    1.40    1.40</time>
   <energy>
    <i name="e_fr_energy">    -43.60685202 </i>
    <i name="e_wo_entrp">    -43.60685202 </i>
    <i name="e_0_energy">    -43.60685202 </i>
   </energy>
  </scstep>
  <scstep>
   <time name="dav">    1.34    1.34</time>
   <time name="total">    1.40    1.40</time>
   <energy>
    <i name="e_fr_energy">    -43.38495623 </i>
    <i name="e_wo_entrp">    -43.38495623 </i>
    <i name="e_0_energy">    -43.38495623 </i>
   </energy>
  </scstep>
  <scstep>
   <time name="dav">    1.38    1.38</time>
   <time name="total">    1.44    1.44</time>
   <energy>
    <i name="e_fr_energy">    -43.38896576 </i>
    <i name="e_wo_entrp">    -43.38896576 </i>
    <i name="e_0_energy">    -43.38896576 </i>
   </energy>
  </scstep>
  <scstep>
   <time name="dav">    1.42    1.42</time>
   <time name="total">    1.48    1.48</time>
   <energy>
    <i name="e_fr_energy">    -43.38980398 </i>
    <i name="e_wo_entrp">    -43.38980398 </i>
    <i name="e_0_energy">    -43.38980398 </i>
   </energy>
  </scstep>
  <scstep>
   <time name="dav">    1.36    1.36</time>
   <time name="total">    1.42    1.42</time>
   <energy>
    <i name="e_fr_energy">    -43.39003329 </i>
    <i name="e_wo_entrp">    -43.39003329 </i>
    <i name="e_0_energy">    -43.39003329 </i>
   </energy>
  </scstep>
  <scstep>
   <time name="dav">    1.42    1.42</time>
   <time name="total">    1.48    1.48</time>
   <energy>
    <i name="e_fr_energy">    -43.39003218 </i>
    <i name="e_wo_entrp">    -43.39003218 </i>
    <i name="e_0_energy">    -43.39003218 </i>
   </energy>
  </scstep>
  <scstep>
   <time name="dav">    1.42    1.42</time>
   <time name="total">    1.48    1.48</time>
   <energy>
    <i name="e_fr_energy">    -43.39003354 </i>
    <i name="e_wo_entrp">    -43.39003354 </i>
    <i name="e_0_energy">    -43.39003354 </i>
   </energy>
  </scstep>
  <scstep>
   <time name="dav">    1.41    1.41</time>
   <time name="total">    1.46    1.47</time>
   <energy>
    <i name="e_fr_energy">    -43.39003327 </i>
    <i name="e_wo_entrp">    -43.39003327 </i>
    <i name="e_0_energy">    -43.39003327 </i>
   </energy>
  </scstep>
  <scstep>
   <time name="dav">    1.18    1.18</time>
   <time name="total">    1.24    1.24</time>
   <energy>
    <i name="e_fr_energy">    -43.39003332 </i>
    <i name="e_wo_entrp">    -43.39003332 </i>
    <i name="e_0_energy">    -43.39003332 </i>
   </energy>
  </scstep>
  <scstep>
   <time name="dav">    1.12    1.13</time>
   <time name="total">    1.18    1.18</time>
   <energy>
    <i name="e_fr_energy">    -43.39003330 </i>
    <i name="e_wo_entrp">    -43.39003330 </i>
    <i name="e_0_energy">    -43.39003330 </i>
   </energy>
  </scstep>
  <scstep>
   <time name="dav">    1.11    1.11</time>
   <time name="total">    1.13    1.13</time>
   <energy>
    <i name="alphaZ">     13.35522965 </i>
    <i name="ewald">   -911.95054765 </i>
    <i name="hartreedc">    -60.02809334 </i>
    <i name="XCdc">    -71.99035755 </i>
    <i name="pawpsdc">   3421.43809255 </i>
    <i name="pawaedc">  -3281.56132266 </i>
    <i name="eentropy">     -0.00000000 </i>
    <i name="bandstr">     22.81691195 </i>
    <i name="atom">    824.53005375 </i>
    <i name="e_fr_energy">    -43.39003330 </i>
    <i name="e_wo_entrp">    -43.39003330 </i>
    <i name="e_0_energy">    -43.39003330 </i>
   </energy>
  </scstep>
  <structure>
   <crystal>
    <varray name="basis" >
     <v>      -2.72185119       2.72185119       5.44370237 </v>
     <v>       2.72185119      -5.44370237       2.72185119 </v>
     <v>       2.72185119       2.72185119       0.00000000 </v>
    </varray>
    <i name="volume">    161.31810740 </i>
    <varray name="rec_basis" >
     <v>      -0.04592463       0.04592463       0.13777388 </v>
     <v>       0.09184925      -0.09184925       0.09184925 </v>
     <v>       0.22962313       0.13777388       0.04592463 </v>
    </varray>
   </crystal>
   <varray name="positions" >
    <v>       0.00000000       0.00149989       0.00000000 </v>
    <v>       0.50000000       0.00000000       0.50000000 </v>
    <v>       0.25000000       0.50000000       0.75000000 </v>
    <v>       0.75000000       0.50000000       0.25000000 </v>
    <v>       0.18750000       0.12500000       0.56250000 </v>
    <v>       0.68750000       0.12500000       0.06250000 </v>
    <v>       0.43750000       0.62500000       0.31250000 </v>
    <v>       0.93750000       0.62500000       0.81250000 </v>
   </varray>
  </structure>
  <varray name="forces" >
   <v>      -0.05543954       0.10720047      -0.05797926 </v>
   <v>      -0.00499038       0.00714948      -0.00237629 </v>
   <v>       0.00268701      -0.00200542       0.00584771 </v>
   <v>       0.00425789      -0.00356120       0.00114567 </v>
   <v>      -0.01004075      -0.03624651       0.02940354 </v>
   <v>       0.02529154      -0.03032471      -0.01421648 </v>
   <v>       0.00045685      -0.00058414       0.00069239 </v>
   <v>       0.03777738      -0.04162798       0.03748271 </v>
  </varray>
  <varray name="stress" >
   <v>      12.54571794       0.39368957      -0.77697044 </v>
   <v>       0.39368965      12.53655525       0.38331486 </v>
   <v>      -0.77697049       0.38331483      12.51905708 </v>
  </varray>
  <energy>
   <i name="e_fr_energy">    -43.39003330 </i>
   <i name="e_wo_entrp">    -43.39003330 </i>
   <i name="e_0_energy">    -43.39003330 </i>
  </energy>
  <time name="totalsc">   22.97   23.00</time>
  <eigenvalues>
   <array>
    <dimension dim="1">band</dimension>
    <dimension dim="2">kpoint</dimension>
    <dimension dim="3">spin</dimension>
    <field>eigene</field>
    <field>occ</field>
    <set>
     <set comment="spin 1">
      <set comment="kpoint 1">
       <r>   -6.1549    1.0000 </r>
       <r>   -3.8464    1.0000 </r>
       <r>   -3.4591    1.0000 </r>
       <r>   -3.4487    1.0000 </r>
       <r>   -1.1687    1.0000 </r>
       <r>   -0.6180    1.0000 </r>
       <r>   -0.6053    1.0000 </r>
       <r>    2.2514    1.0000 </r>
       <r>    2.2542    1.0000 </r>
       <r>    3.5551    1.0000 </r>
       <r>    3.5713    1.0000 </r>
       <r>    4.5578    1.0000 </r>
       <r>    4.5631    1.0000 </r>
       <r>    5.7436    1.0000 </r>
       <r>    5.7498    1.0000 </r>
       <r>    5.7667    1.0000 </r>
       <r>    7.2638    0.0000 </r>
       <r>    7.2740    0.0000 </r>
       <r>    7.2860    0.0000 </r>
       <r>    8.3083    0.0000 </r>
       <r>    8.3181    0.0000 </r>
       <r>    8.3219    0.0000 </r>
       <r>    9.0445    0.0000 </r>
       <r>    9.0933    0.0000 </r>
      </set>
      <set comment="kpoint 2">
       <r>   -6.0719    1.0000 </r>
       <r>   -4.1862    1.0000 </r>
       <r>   -3.7770    1.0000 </r>
       <r>   -2.8940    1.0000 </r>
       <r>   -1.1158    1.0000 </r>
       <r>   -1.1029    1.0000 </r>
       <r>    0.2573    1.0000 </r>
       <r>    1.6441    1.0000 </r>
       <r>    2.9995    1.0000 </r>
       <r>    3.5434    1.0000 </r>
       <r>    3.7221    1.0000 </r>
       <r>    3.9170    1.0000 </r>
       <r>    4.4440    1.0000 </r>
       <r>    5.0702    1.0000 </r>
       <r>    5.4867    1.0000 </r>
       <r>    5.6060    1.0000 </r>
       <r>    7.2141    0.0000 </r>
       <r>    7.4820    0.0000 </r>
       <r>    7.7791    0.0000 </r>
       <r>    8.2341    0.0000 </r>
       <r>    8.5683    0.0000 </r>
       <r>    8.6710    0.0000 </r>
       <r>    9.0625    0.0000 </r>
       <r>    9.3759    0.0000 </r>
      </set>
      <set comment="kpoint 3">
       <r>   -5.8244    1.0000 </r>
       <r>   -4.8632    1.0000 </r>
       <r>   -3.5734    1.0000 </r>
       <r>   -2.9158    1.0000 </r>
       <r>   -0.9952    1.0000 </r>
       <r>   -0.9661    1.0000 </r>
       <r>    1.3247    1.0000 </r>
       <r>    1.3799    1.0000 </r>
       <r>    2.7783    1.0000 </r>
       <r>    3.6557    1.0000 </r>
       <r>    3.7824    1.0000 </r>
       <r>    3.8231    1.0000 </r>
       <r>    4.0188    1.0000 </r>
       <r>    4.1716    1.0000 </r>
       <r>    4.9632    1.0000 </r>
       <r>    5.1647    1.0000 </r>
       <r>    7.3260    0.0000 </r>
       <r>    7.7190    0.0000 </r>
       <r>    7.9352    0.0000 </r>
       <r>    8.0642    0.0000 </r>
       <r>    8.9571    0.0000 </r>
       <r>    9.4282    0.0000 </r>
       <r>    9.7963    0.0000 </r>
       <r>    9.8060    0.0000 </r>
      </set>
      <set comment="kpoint 4">
       <r>   -5.4185    1.0000 </r>
       <r>   -5.4167    1.0000 </r>
       <r>   -3.2612    1.0000 </r>
       <r>   -3.2533    1.0000 </r>
       <r>   -0.8640    1.0000 </r>
       <r>   -0.8427    1.0000 </r>
       <r>    1.7844    1.0000 </r>
       <r>    1.7924    1.0000 </r>
       <r>    2.5289    1.0000 </r>
       <r>    2.5353    1.0000 </r>
       <r>    3.8756    1.0000 </r>
       <r>    3.8836    1.0000 </r>
       <r>    4.4383    1.0000 </r>
       <r>    4.4476    1.0000 </r>
       <r>    4.5211    1.0000 </r>
       <r>    4.5356    1.0000 </r>
       <r>    7.5966    0.0000 </r>
       <r>    7.6042    0.0000 </r>
       <r>    7.8981    0.0000 </r>
       <r>    7.9040    0.0000 </r>
       <r>    9.4258    0.0000 </r>
       <r>    9.4390    0.0000 </r>
       <r>   10.2069    0.0000 </r>
       <r>   10.2198    0.0000 </r>
      </set>
      <set comment="kpoint 5">
       <r>   -6.0885    1.0000 </r>
       <r>   -4.0983    1.0000 </r>
       <r>   -3.6549    1.0000 </r>
       <r>   -3.1631    1.0000 </r>
       <r>   -0.7928    1.0000 </r>
       <r>   -0.7858    1.0000 </r>
       <r>   -0.7376    1.0000 </r>
       <r>    2.1257    1.0000 </r>
       <r>    2.8688    1.0000 </r>
       <r>    3.2596    1.0000 </r>
       <r>    3.9253    1.0000 </r>
       <r>    4.5941    1.0000 </r>
       <r>    4.5995    1.0000 </r>
       <r>    5.0985    1.0000 </r>
       <r>    5.6370    1.0000 </r>
       <r>    5.6432    1.0000 </r>
       <r>    6.8817    0.0000 </r>
       <r>    7.3077    0.0000 </r>
       <r>    7.7266    0.0000 </r>
       <r>    8.3601    0.0000 </r>
       <r>    8.4749    0.0000 </r>
       <r>    8.4787    0.0000 </r>
       <r>    8.7056    0.0000 </r>
       <r>    9.1322    0.0000 </r>
      </set>
      <set comment="kpoint 6">
       <r>   -5.9797    1.0000 </r>
       <r>   -4.2875    1.0000 </r>
       <r>   -4.1099    1.0000 </r>
       <r>   -2.4576    1.0000 </r>
       <r>   -1.4580    1.0000 </r>
       <r>   -0.6082    1.0000 </r>
       <r>   -0.0448    1.0000 </r>
       <r>    1.6483    1.0000 </r>
       <r>    3.2629    1.0000 </r>
       <r>    3.6412    1.0000 </r>
       <r>    3.8799    1.0000 </r>
       <r>    4.0900    1.0000 </r>
       <r>    4.6027    1.0000 </r>
       <r>    4.7162    1.0000 </r>
       <r>    5.1958    1.0000 </r>
       <r>    5.2619    1.0000 </r>
       <r>    6.8734    0.0000 </r>
       <r>    7.8410    0.0000 </r>
       <r>    7.9225    0.0000 </r>
       <r>    7.9952    0.0000 </r>
       <r>    8.9915    0.0000 </r>
       <r>    9.0778    0.0000 </r>
       <r>    9.2029    0.0000 </r>
       <r>    9.3086    0.0000 </r>
      </set>
      <set comment="kpoint 7">
       <r>   -5.7061    1.0000 </r>
       <r>   -4.9138    1.0000 </r>
       <r>   -3.9786    1.0000 </r>
       <r>   -2.6358    1.0000 </r>
       <r>   -1.2812    1.0000 </r>
       <r>   -0.3611    1.0000 </r>
       <r>    0.9718    1.0000 </r>
       <r>    1.5216    1.0000 </r>
       <r>    2.7206    1.0000 </r>
       <r>    3.4031    1.0000 </r>
       <r>    3.7996    1.0000 </r>
       <r>    4.3836    1.0000 </r>
       <r>    4.3904    1.0000 </r>
       <r>    4.4165    1.0000 </r>
       <r>    4.6232    1.0000 </r>
       <r>    4.6353    1.0000 </r>
       <r>    7.0388    0.0000 </r>
       <r>    7.5140    0.0000 </r>
       <r>    8.0773    0.0000 </r>
       <r>    8.1528    0.0000 </r>
       <r>    9.0938    0.0000 </r>
       <r>    9.8471    0.0000 </r>
       <r>    9.9434    0.0000 </r>
       <r>    9.9762    0.0000 </r>
      </set>
      <set comment="kpoint 8">
       <r>   -5.4334    1.0000 </r>
       <r>   -5.2721    1.0000 </r>
       <r>   -3.7259    1.0000 </r>
       <r>   -3.1787    1.0000 </r>
       <r>   -0.9613    1.0000 </r>
       <r>   -0.2307    1.0000 </r>
       <r>    1.8048    1.0000 </r>
       <r>    1.9863    1.0000 </r>
       <r>    2.1600    1.0000 </r>
       <r>    2.5810    1.0000 </r>
       <r>    3.6634    1.0000 </r>
       <r>    4.0783    1.0000 </r>
       <r>    4.0966    1.0000 </r>
       <r>    4.1770    1.0000 </r>
       <r>    4.7924    1.0000 </r>
       <r>    5.0123    1.0000 </r>
       <r>    7.2062    0.0000 </r>
       <r>    7.3775    0.0000 </r>
       <r>    7.9215    0.0000 </r>
       <r>    8.0624    0.0000 </r>
       <r>    8.9457    0.0000 </r>
       <r>    9.3638    0.0000 </r>
       <r>    9.5732    0.0000 </r>
       <r>   10.8354    0.0000 </r>
      </set>
      <set comment="kpoint 9">
       <r>   -5.8109    1.0000 </r>
       <r>   -4.6869    1.0000 </r>
       <r>   -3.6275    1.0000 </r>
       <r>   -3.4221    1.0000 </r>
       <r>   -0.8958    1.0000 </r>
       <r>   -0.5823    1.0000 </r>
       <r>    1.3707    1.0000 </r>
       <r>    1.6752    1.0000 </r>
       <r>    2.9510    1.0000 </r>
       <r>    3.4410    1.0000 </r>
       <r>    3.4502    1.0000 </r>
       <r>    3.6815    1.0000 </r>
       <r>    3.9838    1.0000 </r>
       <r>    4.0085    1.0000 </r>
       <r>    5.2641    1.0000 </r>
       <r>    5.3690    1.0000 </r>
       <r>    7.0779    0.0000 </r>
       <r>    7.7086    0.0000 </r>
       <r>    7.8061    0.0000 </r>
       <r>    8.1148    0.0000 </r>
       <r>    8.6968    0.0000 </r>
       <r>    8.8693    0.0000 </r>
       <r>    9.0091    0.0000 </r>
       <r>    9.8357    0.0000 </r>
      </set>
      <set comment="kpoint 10">
       <r>   -6.0314    1.0000 </r>
       <r>   -3.9694    1.0000 </r>
       <r>   -3.9368    1.0000 </r>
       <r>   -3.2962    1.0000 </r>
       <r>   -0.9983    1.0000 </r>
       <r>   -0.8776    1.0000 </r>
       <r>    0.2495    1.0000 </r>
       <r>    2.1630    1.0000 </r>
       <r>    2.7616    1.0000 </r>
       <r>    3.3994    1.0000 </r>
       <r>    3.8928    1.0000 </r>
       <r>    4.0393    1.0000 </r>
       <r>    4.3621    1.0000 </r>
       <r>    4.7027    1.0000 </r>
       <r>    5.4150    1.0000 </r>
       <r>    5.6511    1.0000 </r>
       <r>    6.9903    0.0000 </r>
       <r>    7.6387    0.0000 </r>
       <r>    7.7967    0.0000 </r>
       <r>    8.3925    0.0000 </r>
       <r>    8.4516    0.0000 </r>
       <r>    8.4918    0.0000 </r>
       <r>    8.6517    0.0000 </r>
       <r>    9.0073    0.0000 </r>
      </set>
      <set comment="kpoint 11">
       <r>   -5.8906    1.0000 </r>
       <r>   -4.6100    1.0000 </r>
       <r>   -3.7767    1.0000 </r>
       <r>   -2.7782    1.0000 </r>
       <r>   -1.1908    1.0000 </r>
       <r>   -1.0198    1.0000 </r>
       <r>    0.0939    1.0000 </r>
       <r>    2.4580    1.0000 </r>
       <r>    3.0455    1.0000 </r>
       <r>    3.7096    1.0000 </r>
       <r>    3.8356    1.0000 </r>
       <r>    4.2828    1.0000 </r>
       <r>    4.7027    1.0000 </r>
       <r>    4.7081    1.0000 </r>
       <r>    5.3918    1.0000 </r>
       <r>    5.3974    1.0000 </r>
       <r>    6.6009    0.0000 </r>
       <r>    7.4317    0.0000 </r>
       <r>    7.4459    0.0000 </r>
       <r>    7.9158    0.0000 </r>
       <r>    8.1708    0.0000 </r>
       <r>    8.8323    0.0000 </r>
       <r>    8.8366    0.0000 </r>
       <r>    9.1037    0.0000 </r>
      </set>
      <set comment="kpoint 12">
       <r>   -5.7570    1.0000 </r>
       <r>   -4.6366    1.0000 </r>
       <r>   -4.2753    1.0000 </r>
       <r>   -2.1917    1.0000 </r>
       <r>   -1.7789    1.0000 </r>
       <r>   -0.4055    1.0000 </r>
       <r>    0.3308    1.0000 </r>
       <r>    2.0749    1.0000 </r>
       <r>    3.0758    1.0000 </r>
       <r>    3.5205    1.0000 </r>
       <r>    3.9351    1.0000 </r>
       <r>    4.3570    1.0000 </r>
       <r>    4.4287    1.0000 </r>
       <r>    4.8256    1.0000 </r>
       <r>    4.8918    1.0000 </r>
       <r>    5.0877    1.0000 </r>
       <r>    6.6542    0.0000 </r>
       <r>    7.7208    0.0000 </r>
       <r>    7.9786    0.0000 </r>
       <r>    7.9980    0.0000 </r>
       <r>    8.1073    0.0000 </r>
       <r>    8.9380    0.0000 </r>
       <r>    9.0106    0.0000 </r>
       <r>    9.2935    0.0000 </r>
      </set>
      <set comment="kpoint 13">
       <r>   -5.4589    1.0000 </r>
       <r>   -4.8390    1.0000 </r>
       <r>   -4.5118    1.0000 </r>
       <r>   -2.9368    1.0000 </r>
       <r>   -0.9770    1.0000 </r>
       <r>    0.5649    1.0000 </r>
       <r>    0.5778    1.0000 </r>
       <r>    1.9609    1.0000 </r>
       <r>    2.8025    1.0000 </r>
       <r>    2.9918    1.0000 </r>
       <r>    3.2465    1.0000 </r>
       <r>    4.3211    1.0000 </r>
       <r>    4.3296    1.0000 </r>
       <r>    4.6893    1.0000 </r>
       <r>    4.7206    1.0000 </r>
       <r>    4.8010    1.0000 </r>
       <r>    6.8647    0.0000 </r>
       <r>    7.4221    0.0000 </r>
       <r>    7.5747    0.0000 </r>
       <r>    8.4274    0.0000 </r>
       <r>    8.8488    0.0000 </r>
       <r>    9.1753    0.0000 </r>
       <r>    9.3785    0.0000 </r>
       <r>    9.7134    0.0000 </r>
      </set>
      <set comment="kpoint 14">
       <r>   -5.3194    1.0000 </r>
       <r>   -5.0001    1.0000 </r>
       <r>   -4.2540    1.0000 </r>
       <r>   -3.5842    1.0000 </r>
       <r>   -0.4246    1.0000 </r>
       <r>    0.4495    1.0000 </r>
       <r>    1.7340    1.0000 </r>
       <r>    2.0691    1.0000 </r>
       <r>    2.1621    1.0000 </r>
       <r>    2.3452    1.0000 </r>
       <r>    3.5439    1.0000 </r>
       <r>    3.8077    1.0000 </r>
       <r>    3.8138    1.0000 </r>
       <r>    4.5208    1.0000 </r>
       <r>    4.8855    1.0000 </r>
       <r>    5.0393    1.0000 </r>
       <r>    6.8569    0.0000 </r>
       <r>    7.2582    0.0000 </r>
       <r>    7.7713    0.0000 </r>
       <r>    8.2883    0.0000 </r>
       <r>    8.7658    0.0000 </r>
       <r>    9.2054    0.0000 </r>
       <r>    9.3312    0.0000 </r>
       <r>    9.9085    0.0000 </r>
      </set>
      <set comment="kpoint 15">
       <r>   -5.6661    1.0000 </r>
       <r>   -4.3882    1.0000 </r>
       <r>   -4.0829    1.0000 </r>
       <r>   -3.9144    1.0000 </r>
       <r>   -0.3066    1.0000 </r>
       <r>   -0.1955    1.0000 </r>
       <r>    0.9531    1.0000 </r>
       <r>    2.4174    1.0000 </r>
       <r>    2.9871    1.0000 </r>
       <r>    3.2226    1.0000 </r>
       <r>    3.3985    1.0000 </r>
       <r>    3.4196    1.0000 </r>
       <r>    3.9378    1.0000 </r>
       <r>    4.3462    1.0000 </r>
       <r>    4.7098    1.0000 </r>
       <r>    5.4035    1.0000 </r>
       <r>    6.5656    0.0000 </r>
       <r>    7.7645    0.0000 </r>
       <r>    7.9206    0.0000 </r>
       <r>    8.1037    0.0000 </r>
       <r>    8.2822    0.0000 </r>
       <r>    8.8859    0.0000 </r>
       <r>    9.2253    0.0000 </r>
       <r>    9.9423    0.0000 </r>
      </set>
      <set comment="kpoint 16">
       <r>   -5.8593    1.0000 </r>
       <r>   -4.4258    1.0000 </r>
       <r>   -3.6538    1.0000 </r>
       <r>   -3.6345    1.0000 </r>
       <r>   -0.9765    1.0000 </r>
       <r>   -0.1603    1.0000 </r>
       <r>   -0.0699    1.0000 </r>
       <r>    2.9381    1.0000 </r>
       <r>    3.0207    1.0000 </r>
       <r>    3.1606    1.0000 </r>
       <r>    3.9185    1.0000 </r>
       <r>    4.2376    1.0000 </r>
       <r>    4.2579    1.0000 </r>
       <r>    4.3650    1.0000 </r>
       <r>    4.7550    1.0000 </r>
       <r>    5.5977    1.0000 </r>
       <r>    6.5505    0.0000 </r>
       <r>    7.4156    0.0000 </r>
       <r>    7.8907    0.0000 </r>
       <r>    7.9991    0.0000 </r>
       <r>    8.6271    0.0000 </r>
       <r>    8.6430    0.0000 </r>
       <r>    8.8322    0.0000 </r>
       <r>    9.0253    0.0000 </r>
      </set>
      <set comment="kpoint 17">
       <r>   -5.5668    1.0000 </r>
       <r>   -5.1293    1.0000 </r>
       <r>   -3.8327    1.0000 </r>
       <r>   -2.3031    1.0000 </r>
       <r>   -1.7566    1.0000 </r>
       <r>   -1.1643    1.0000 </r>
       <r>    1.2265    1.0000 </r>
       <r>    2.4982    1.0000 </r>
       <r>    2.8565    1.0000 </r>
       <r>    2.9354    1.0000 </r>
       <r>    4.4420    1.0000 </r>
       <r>    4.5232    1.0000 </r>
       <r>    4.8803    1.0000 </r>
       <r>    4.8860    1.0000 </r>
       <r>    5.1195    1.0000 </r>
       <r>    5.1246    1.0000 </r>
       <r>    6.4645    0.0000 </r>
       <r>    6.6285    0.0000 </r>
       <r>    7.3975    0.0000 </r>
       <r>    7.6327    0.0000 </r>
       <r>    7.8931    0.0000 </r>
       <r>    9.0611    0.0000 </r>
       <r>    9.1592    0.0000 </r>
       <r>    9.1676    0.0000 </r>
      </set>
      <set comment="kpoint 18">
       <r>   -5.4103    1.0000 </r>
       <r>   -5.1435    1.0000 </r>
       <r>   -4.1569    1.0000 </r>
       <r>   -2.6769    1.0000 </r>
       <r>   -1.3264    1.0000 </r>
       <r>   -0.7030    1.0000 </r>
       <r>    1.4768    1.0000 </r>
       <r>    2.2371    1.0000 </r>
       <r>    2.6520    1.0000 </r>
       <r>    2.9943    1.0000 </r>
       <r>    4.0884    1.0000 </r>
       <r>    4.6037    1.0000 </r>
       <r>    4.6134    1.0000 </r>
       <r>    4.6358    1.0000 </r>
       <r>    4.8000    1.0000 </r>
       <r>    5.0962    1.0000 </r>
       <r>    6.5266    0.0000 </r>
       <r>    7.0544    0.0000 </r>
       <r>    7.3283    0.0000 </r>
       <r>    8.1691    0.0000 </r>
       <r>    8.1867    0.0000 </r>
       <r>    8.9644    0.0000 </r>
       <r>    9.1482    0.0000 </r>
       <r>    9.1533    0.0000 </r>
      </set>
      <set comment="kpoint 19">
       <r>   -5.0906    1.0000 </r>
       <r>   -5.0013    1.0000 </r>
       <r>   -4.6418    1.0000 </r>
       <r>   -3.4698    1.0000 </r>
       <r>   -0.3639    1.0000 </r>
       <r>    0.2109    1.0000 </r>
       <r>    1.5919    1.0000 </r>
       <r>    1.8978    1.0000 </r>
       <r>    2.5645    1.0000 </r>
       <r>    3.0898    1.0000 </r>
       <r>    3.1960    1.0000 </r>
       <r>    3.9669    1.0000 </r>
       <r>    4.0973    1.0000 </r>
       <r>    4.3835    1.0000 </r>
       <r>    4.8036    1.0000 </r>
       <r>    5.0421    1.0000 </r>
       <r>    6.7504    0.0000 </r>
       <r>    7.6359    0.0000 </r>
       <r>    7.6608    0.0000 </r>
       <r>    7.8765    0.0000 </r>
       <r>    8.6933    0.0000 </r>
       <r>    9.2106    0.0000 </r>
       <r>    9.3301    0.0000 </r>
       <r>    9.5170    0.0000 </r>
      </set>
      <set comment="kpoint 20">
       <r>   -5.0787    1.0000 </r>
       <r>   -4.7187    1.0000 </r>
       <r>   -4.6089    1.0000 </r>
       <r>   -4.1197    1.0000 </r>
       <r>    0.3905    1.0000 </r>
       <r>    0.9454    1.0000 </r>
       <r>    1.2660    1.0000 </r>
       <r>    1.3357    1.0000 </r>
       <r>    2.8290    1.0000 </r>
       <r>    2.9555    1.0000 </r>
       <r>    3.3709    1.0000 </r>
       <r>    3.5288    1.0000 </r>
       <r>    3.6202    1.0000 </r>
       <r>    3.9941    1.0000 </r>
       <r>    4.8516    1.0000 </r>
       <r>    5.0619    1.0000 </r>
       <r>    6.9963    0.0000 </r>
       <r>    7.1840    0.0000 </r>
       <r>    8.2151    0.0000 </r>
       <r>    8.5268    0.0000 </r>
       <r>    8.5420    0.0000 </r>
       <r>    8.9438    0.0000 </r>
       <r>    9.2499    0.0000 </r>
       <r>    9.4986    0.0000 </r>
      </set>
      <set comment="kpoint 21">
       <r>   -5.3936    1.0000 </r>
       <r>   -4.6164    1.0000 </r>
       <r>   -4.3296    1.0000 </r>
       <r>   -3.9751    1.0000 </r>
       <r>   -0.0721    1.0000 </r>
       <r>    0.3134    1.0000 </r>
       <r>    0.7930    1.0000 </r>
       <r>    2.4261    1.0000 </r>
       <r>    3.1389    1.0000 </r>
       <r>    3.2545    1.0000 </r>
       <r>    3.4095    1.0000 </r>
       <r>    3.5725    1.0000 </r>
       <r>    3.7458    1.0000 </r>
       <r>    3.9674    1.0000 </r>
       <r>    4.6611    1.0000 </r>
       <r>    5.3072    1.0000 </r>
       <r>    6.5328    0.0000 </r>
       <r>    7.5804    0.0000 </r>
       <r>    7.7556    0.0000 </r>
       <r>    8.1782    0.0000 </r>
       <r>    8.7388    0.0000 </r>
       <r>    9.1105    0.0000 </r>
       <r>    9.3837    0.0000 </r>
       <r>    9.4282    0.0000 </r>
      </set>
      <set comment="kpoint 22">
       <r>   -5.5599    1.0000 </r>
       <r>   -4.9537    1.0000 </r>
       <r>   -3.9437    1.0000 </r>
       <r>   -3.1992    1.0000 </r>
       <r>   -0.8948    1.0000 </r>
       <r>   -0.7402    1.0000 </r>
       <r>    1.0121    1.0000 </r>
       <r>    2.7213    1.0000 </r>
       <r>    3.0230    1.0000 </r>
       <r>    3.0243    1.0000 </r>
       <r>    3.9700    1.0000 </r>
       <r>    4.3473    1.0000 </r>
       <r>    4.4562    1.0000 </r>
       <r>    4.4997    1.0000 </r>
       <r>    4.5419    1.0000 </r>
       <r>    5.3765    1.0000 </r>
       <r>    6.3409    0.0000 </r>
       <r>    6.9227    0.0000 </r>
       <r>    7.7615    0.0000 </r>
       <r>    8.0412    0.0000 </r>
       <r>    8.4260    0.0000 </r>
       <r>    8.9477    0.0000 </r>
       <r>    9.0441    0.0000 </r>
       <r>    9.1322    0.0000 </r>
      </set>
      <set comment="kpoint 23">
       <r>   -6.0763    1.0000 </r>
       <r>   -3.8036    1.0000 </r>
       <r>   -3.4650    1.0000 </r>
       <r>   -3.3136    1.0000 </r>
       <r>   -1.0911    1.0000 </r>
       <r>   -0.6405    1.0000 </r>
       <r>   -0.6154    1.0000 </r>
       <r>    2.0882    1.0000 </r>
       <r>    2.2669    1.0000 </r>
       <r>    3.1889    1.0000 </r>
       <r>    3.4667    1.0000 </r>
       <r>    4.0003    1.0000 </r>
       <r>    4.4314    1.0000 </r>
       <r>    5.0803    1.0000 </r>
       <r>    5.4682    1.0000 </r>
       <r>    5.6733    1.0000 </r>
       <r>    7.7488    0.0000 </r>
       <r>    7.7613    0.0000 </r>
       <r>    8.0183    0.0000 </r>
       <r>    8.2978    0.0000 </r>
       <r>    8.5257    0.0000 </r>
       <r>    8.5944    0.0000 </r>
       <r>    8.9900    0.0000 </r>
       <r>    9.4088    0.0000 </r>
      </set>
      <set comment="kpoint 24">
       <r>   -5.9856    1.0000 </r>
       <r>   -4.1673    1.0000 </r>
       <r>   -3.7675    1.0000 </r>
       <r>   -2.6911    1.0000 </r>
       <r>   -1.2107    1.0000 </r>
       <r>   -0.9915    1.0000 </r>
       <r>    0.1839    1.0000 </r>
       <r>    1.6229    1.0000 </r>
       <r>    2.7797    1.0000 </r>
       <r>    3.0705    1.0000 </r>
       <r>    3.5941    1.0000 </r>
       <r>    3.8989    1.0000 </r>
       <r>    4.2579    1.0000 </r>
       <r>    4.4163    1.0000 </r>
       <r>    5.3387    1.0000 </r>
       <r>    5.5853    1.0000 </r>
       <r>    7.7223    0.0000 </r>
       <r>    8.0100    0.0000 </r>
       <r>    8.1887    0.0000 </r>
       <r>    8.3406    0.0000 </r>
       <r>    8.5463    0.0000 </r>
       <r>    8.8000    0.0000 </r>
       <r>    9.0239    0.0000 </r>
       <r>    9.6987    0.0000 </r>
      </set>
      <set comment="kpoint 25">
       <r>   -5.7309    1.0000 </r>
       <r>   -4.8263    1.0000 </r>
       <r>   -3.5960    1.0000 </r>
       <r>   -2.7049    1.0000 </r>
       <r>   -1.1601    1.0000 </r>
       <r>   -0.8205    1.0000 </r>
       <r>    1.2109    1.0000 </r>
       <r>    1.4432    1.0000 </r>
       <r>    2.6553    1.0000 </r>
       <r>    3.1719    1.0000 </r>
       <r>    3.2773    1.0000 </r>
       <r>    3.4988    1.0000 </r>
       <r>    3.9332    1.0000 </r>
       <r>    4.5079    1.0000 </r>
       <r>    4.5158    1.0000 </r>
       <r>    5.2985    1.0000 </r>
       <r>    7.8516    0.0000 </r>
       <r>    8.2088    0.0000 </r>
       <r>    8.3735    0.0000 </r>
       <r>    8.5714    0.0000 </r>
       <r>    8.9377    0.0000 </r>
       <r>    8.9961    0.0000 </r>
       <r>    9.3767    0.0000 </r>
       <r>    9.4542    0.0000 </r>
      </set>
      <set comment="kpoint 26">
       <r>   -5.3677    1.0000 </r>
       <r>   -5.3174    1.0000 </r>
       <r>   -3.3110    1.0000 </r>
       <r>   -3.0985    1.0000 </r>
       <r>   -0.9767    1.0000 </r>
       <r>   -0.7062    1.0000 </r>
       <r>    1.7916    1.0000 </r>
       <r>    1.8288    1.0000 </r>
       <r>    2.3610    1.0000 </r>
       <r>    2.4298    1.0000 </r>
       <r>    3.4522    1.0000 </r>
       <r>    3.5935    1.0000 </r>
       <r>    3.7372    1.0000 </r>
       <r>    3.8384    1.0000 </r>
       <r>    4.7841    1.0000 </r>
       <r>    5.1138    1.0000 </r>
       <r>    8.0578    0.0000 </r>
       <r>    8.1345    0.0000 </r>
       <r>    8.3110    0.0000 </r>
       <r>    8.5083    0.0000 </r>
       <r>    9.0249    0.0000 </r>
       <r>    9.4808    0.0000 </r>
       <r>    9.8796    0.0000 </r>
       <r>    9.9746    0.0000 </r>
      </set>
      <set comment="kpoint 27">
       <r>   -5.7636    1.0000 </r>
       <r>   -4.7559    1.0000 </r>
       <r>   -3.4578    1.0000 </r>
       <r>   -2.9960    1.0000 </r>
       <r>   -1.0144    1.0000 </r>
       <r>   -0.8856    1.0000 </r>
       <r>    1.3190    1.0000 </r>
       <r>    1.4793    1.0000 </r>
       <r>    2.6667    1.0000 </r>
       <r>    3.1245    1.0000 </r>
       <r>    3.3626    1.0000 </r>
       <r>    3.5468    1.0000 </r>
       <r>    3.8691    1.0000 </r>
       <r>    4.1620    1.0000 </r>
       <r>    4.5036    1.0000 </r>
       <r>    5.5420    1.0000 </r>
       <r>    7.9783    0.0000 </r>
       <r>    8.0638    0.0000 </r>
       <r>    8.4700    0.0000 </r>
       <r>    8.6257    0.0000 </r>
       <r>    8.7415    0.0000 </r>
       <r>    8.9939    0.0000 </r>
       <r>    9.0171    0.0000 </r>
       <r>    9.5838    0.0000 </r>
      </set>
      <set comment="kpoint 28">
       <r>   -6.0018    1.0000 </r>
       <r>   -4.0691    1.0000 </r>
       <r>   -3.6990    1.0000 </r>
       <r>   -2.9573    1.0000 </r>
       <r>   -1.0902    1.0000 </r>
       <r>   -1.0602    1.0000 </r>
       <r>    0.2779    1.0000 </r>
       <r>    1.7582    1.0000 </r>
       <r>    2.6051    1.0000 </r>
       <r>    3.3012    1.0000 </r>
       <r>    3.5301    1.0000 </r>
       <r>    3.5737    1.0000 </r>
       <r>    4.3059    1.0000 </r>
       <r>    4.6045    1.0000 </r>
       <r>    5.2214    1.0000 </r>
       <r>    5.6284    1.0000 </r>
       <r>    7.8744    0.0000 </r>
       <r>    7.9631    0.0000 </r>
       <r>    8.0250    0.0000 </r>
       <r>    8.3205    0.0000 </r>
       <r>    8.6126    0.0000 </r>
       <r>    8.7731    0.0000 </r>
       <r>    9.0231    0.0000 </r>
       <r>    9.4744    0.0000 </r>
      </set>
      <set comment="kpoint 29">
       <r>   -5.9679    1.0000 </r>
       <r>   -4.1790    1.0000 </r>
       <r>   -3.6343    1.0000 </r>
       <r>   -3.0018    1.0000 </r>
       <r>   -0.8723    1.0000 </r>
       <r>   -0.8374    1.0000 </r>
       <r>   -0.5142    1.0000 </r>
       <r>    2.2058    1.0000 </r>
       <r>    2.8325    1.0000 </r>
       <r>    2.8462    1.0000 </r>
       <r>    3.9425    1.0000 </r>
       <r>    4.0352    1.0000 </r>
       <r>    4.5110    1.0000 </r>
       <r>    4.5282    1.0000 </r>
       <r>    5.0914    1.0000 </r>
       <r>    5.5061    1.0000 </r>
       <r>    7.3953    0.0000 </r>
       <r>    7.8256    0.0000 </r>
       <r>    8.1965    0.0000 </r>
       <r>    8.3484    0.0000 </r>
       <r>    8.4141    0.0000 </r>
       <r>    8.7923    0.0000 </r>
       <r>    8.9240    0.0000 </r>
       <r>    9.0231    0.0000 </r>
      </set>
      <set comment="kpoint 30">
       <r>   -5.8521    1.0000 </r>
       <r>   -4.2291    1.0000 </r>
       <r>   -4.1987    1.0000 </r>
       <r>   -2.2522    1.0000 </r>
       <r>   -1.6322    1.0000 </r>
       <r>   -0.3178    1.0000 </r>
       <r>   -0.1341    1.0000 </r>
       <r>    1.8086    1.0000 </r>
       <r>    2.7929    1.0000 </r>
       <r>    3.2709    1.0000 </r>
       <r>    3.7292    1.0000 </r>
       <r>    3.8960    1.0000 </r>
       <r>    4.2891    1.0000 </r>
       <r>    4.3998    1.0000 </r>
       <r>    4.8223    1.0000 </r>
       <r>    5.4766    1.0000 </r>
       <r>    7.4299    0.0000 </r>
       <r>    8.0460    0.0000 </r>
       <r>    8.3386    0.0000 </r>
       <r>    8.3894    0.0000 </r>
       <r>    8.7526    0.0000 </r>
       <r>    8.9250    0.0000 </r>
       <r>    9.0042    0.0000 </r>
       <r>    9.0922    0.0000 </r>
      </set>
      <set comment="kpoint 31">
       <r>   -5.5723    1.0000 </r>
       <r>   -4.8348    1.0000 </r>
       <r>   -4.0738    1.0000 </r>
       <r>   -2.6110    1.0000 </r>
       <r>   -1.2671    1.0000 </r>
       <r>   -0.0850    1.0000 </r>
       <r>    0.8585    1.0000 </r>
       <r>    1.6771    1.0000 </r>
       <r>    2.7053    1.0000 </r>
       <r>    2.9632    1.0000 </r>
       <r>    3.0931    1.0000 </r>
       <r>    3.7009    1.0000 </r>
       <r>    4.1362    1.0000 </r>
       <r>    4.5159    1.0000 </r>
       <r>    4.6758    1.0000 </r>
       <r>    4.8987    1.0000 </r>
       <r>    7.6032    0.0000 </r>
       <r>    7.7928    0.0000 </r>
       <r>    8.2903    0.0000 </r>
       <r>    8.6957    0.0000 </r>
       <r>    8.9998    0.0000 </r>
       <r>    9.2023    0.0000 </r>
       <r>    9.4927    0.0000 </r>
       <r>    9.6930    0.0000 </r>
      </set>
      <set comment="kpoint 32">
       <r>   -5.3408    1.0000 </r>
       <r>   -5.1330    1.0000 </r>
       <r>   -3.8232    1.0000 </r>
       <r>   -3.2094    1.0000 </r>
       <r>   -0.8427    1.0000 </r>
       <r>   -0.0386    1.0000 </r>
       <r>    1.9266    1.0000 </r>
       <r>    2.0110    1.0000 </r>
       <r>    2.0285    1.0000 </r>
       <r>    2.1640    1.0000 </r>
       <r>    3.3313    1.0000 </r>
       <r>    3.8079    1.0000 </r>
       <r>    3.8950    1.0000 </r>
       <r>    4.1476    1.0000 </r>
       <r>    4.1893    1.0000 </r>
       <r>    5.2192    1.0000 </r>
       <r>    7.4084    0.0000 </r>
       <r>    7.9381    0.0000 </r>
       <r>    8.3042    0.0000 </r>
       <r>    8.6523    0.0000 </r>
       <r>    9.0802    0.0000 </r>
       <r>    9.3766    0.0000 </r>
       <r>    9.4990    0.0000 </r>
       <r>    9.7365    0.0000 </r>
      </set>
      <set comment="kpoint 33">
       <r>   -5.7075    1.0000 </r>
       <r>   -4.5432    1.0000 </r>
       <r>   -3.6814    1.0000 </r>
       <r>   -3.5112    1.0000 </r>
       <r>   -0.6988    1.0000 </r>
       <r>   -0.5020    1.0000 </r>
       <r>    1.1378    1.0000 </r>
       <r>    1.8969    1.0000 </r>
       <r>    2.7422    1.0000 </r>
       <r>    3.1462    1.0000 </r>
       <r>    3.2632    1.0000 </r>
       <r>    3.6697    1.0000 </r>
       <r>    3.7241    1.0000 </r>
       <r>    3.8806    1.0000 </r>
       <r>    4.7120    1.0000 </r>
       <r>    5.2576    1.0000 </r>
       <r>    7.2772    0.0000 </r>
       <r>    8.2633    0.0000 </r>
       <r>    8.3600    0.0000 </r>
       <r>    8.4564    0.0000 </r>
       <r>    8.6569    0.0000 </r>
       <r>    8.8288    0.0000 </r>
       <r>    9.1672    0.0000 </r>
       <r>    9.4721    0.0000 </r>
      </set>
      <set comment="kpoint 34">
       <r>   -5.9190    1.0000 </r>
       <r>   -4.0064    1.0000 </r>
       <r>   -3.8202    1.0000 </r>
       <r>   -3.3431    1.0000 </r>
       <r>   -0.9827    1.0000 </r>
       <r>   -0.6307    1.0000 </r>
       <r>    0.0989    1.0000 </r>
       <r>    2.3309    1.0000 </r>
       <r>    2.6571    1.0000 </r>
       <r>    3.1673    1.0000 </r>
       <r>    3.4941    1.0000 </r>
       <r>    3.7148    1.0000 </r>
       <r>    4.4209    1.0000 </r>
       <r>    4.4589    1.0000 </r>
       <r>    5.0575    1.0000 </r>
       <r>    5.1558    1.0000 </r>
       <r>    7.3469    0.0000 </r>
       <r>    7.9222    0.0000 </r>
       <r>    8.1066    0.0000 </r>
       <r>    8.2385    0.0000 </r>
       <r>    8.3830    0.0000 </r>
       <r>    9.0726    0.0000 </r>
       <r>    9.1395    0.0000 </r>
       <r>    9.2761    0.0000 </r>
      </set>
      <set comment="kpoint 35">
       <r>   -5.7295    1.0000 </r>
       <r>   -4.7103    1.0000 </r>
       <r>   -3.7305    1.0000 </r>
       <r>   -2.5992    1.0000 </r>
       <r>   -1.3651    1.0000 </r>
       <r>   -1.0460    1.0000 </r>
       <r>    0.4596    1.0000 </r>
       <r>    2.5686    1.0000 </r>
       <r>    2.6902    1.0000 </r>
       <r>    3.3556    1.0000 </r>
       <r>    3.5077    1.0000 </r>
       <r>    4.1306    1.0000 </r>
       <r>    4.3371    1.0000 </r>
       <r>    4.6798    1.0000 </r>
       <r>    4.7204    1.0000 </r>
       <r>    5.3370    1.0000 </r>
       <r>    7.0551    0.0000 </r>
       <r>    7.3171    0.0000 </r>
       <r>    7.9643    0.0000 </r>
       <r>    8.0535    0.0000 </r>
       <r>    8.3296    0.0000 </r>
       <r>    8.7849    0.0000 </r>
       <r>    9.0262    0.0000 </r>
       <r>    9.0710    0.0000 </r>
      </set>
      <set comment="kpoint 36">
       <r>   -5.5897    1.0000 </r>
       <r>   -4.7333    1.0000 </r>
       <r>   -4.1791    1.0000 </r>
       <r>   -2.2691    1.0000 </r>
       <r>   -1.6773    1.0000 </r>
       <r>   -0.4758    1.0000 </r>
       <r>    0.6904    1.0000 </r>
[...]
       <r>   -3.0426    1.0000 </r>
       <r>   -2.1162    1.0000 </r>
       <r>   -1.8367    1.0000 </r>
       <r>   -0.8838    1.0000 </r>
       <r>   -0.8167    1.0000 </r>
       <r>   -0.4502    1.0000 </r>
       <r>    2.1135    1.0000 </r>
       <r>    2.2532    1.0000 </r>
       <r>    2.7296    1.0000 </r>
       <r>    2.7724    1.0000 </r>
       <r>    2.8706    1.0000 </r>
       <r>    3.8857    1.0000 </r>
       <r>    3.9132    1.0000 </r>
       <r>    4.5531    1.0000 </r>
       <r>    6.9515    0.0000 </r>
       <r>    7.5640    0.0000 </r>
       <r>    7.9298    0.0000 </r>
       <r>    7.9989    0.0000 </r>
       <r>    8.2827    0.0000 </r>
       <r>    8.5726    0.0000 </r>
       <r>    8.8955    0.0000 </r>
       <r>    9.0423    0.0000 </r>
      </set>
      <set comment="kpoint 230">
       <r>   -3.9524    1.0000 </r>
       <r>   -3.9054    1.0000 </r>
       <r>   -2.8024    1.0000 </r>
       <r>   -2.2902    1.0000 </r>
       <r>   -1.7169    1.0000 </r>
       <r>   -1.1173    1.0000 </r>
       <r>   -0.8917    1.0000 </r>
       <r>   -0.5504    1.0000 </r>
       <r>    1.9224    1.0000 </r>
       <r>    2.4205    1.0000 </r>
       <r>    2.9721    1.0000 </r>
       <r>    3.1956    1.0000 </r>
       <r>    3.2185    1.0000 </r>
       <r>    4.0049    1.0000 </r>
       <r>    4.1243    1.0000 </r>
       <r>    4.4233    1.0000 </r>
       <r>    6.6116    0.0000 </r>
       <r>    6.8793    0.0000 </r>
       <r>    7.3446    0.0000 </r>
       <r>    7.7360    0.0000 </r>
       <r>    7.8678    0.0000 </r>
       <r>    8.8102    0.0000 </r>
       <r>    8.9933    0.0000 </r>
       <r>    9.4436    0.0000 </r>
      </set>
      <set comment="kpoint 231">
       <r>   -4.1855    1.0000 </r>
       <r>   -3.7008    1.0000 </r>
       <r>   -2.5705    1.0000 </r>
       <r>   -2.5580    1.0000 </r>
       <r>   -1.4061    1.0000 </r>
       <r>   -1.3340    1.0000 </r>
       <r>   -1.0821    1.0000 </r>
       <r>   -0.0425    1.0000 </r>
       <r>    1.6603    1.0000 </r>
       <r>    2.4545    1.0000 </r>
       <r>    2.8188    1.0000 </r>
       <r>    3.1194    1.0000 </r>
       <r>    3.1815    1.0000 </r>
       <r>    3.4882    1.0000 </r>
       <r>    4.0505    1.0000 </r>
       <r>    4.3349    1.0000 </r>
       <r>    6.9168    0.0000 </r>
       <r>    7.2307    0.0000 </r>
       <r>    7.4213    0.0000 </r>
       <r>    7.9885    0.0000 </r>
       <r>    8.0828    0.0000 </r>
       <r>    9.1489    0.0000 </r>
       <r>    9.4923    0.0000 </r>
       <r>    9.5724    0.0000 </r>
      </set>
      <set comment="kpoint 232">
       <r>   -4.3669    1.0000 </r>
       <r>   -3.5085    1.0000 </r>
       <r>   -2.7958    1.0000 </r>
       <r>   -2.4107    1.0000 </r>
       <r>   -1.4045    1.0000 </r>
       <r>   -1.1232    1.0000 </r>
       <r>   -0.9865    1.0000 </r>
       <r>    0.5165    1.0000 </r>
       <r>    1.5870    1.0000 </r>
       <r>    1.9151    1.0000 </r>
       <r>    2.5899    1.0000 </r>
       <r>    2.6416    1.0000 </r>
       <r>    2.7459    1.0000 </r>
       <r>    3.2012    1.0000 </r>
       <r>    3.9779    1.0000 </r>
       <r>    4.3184    1.0000 </r>
       <r>    6.8819    0.0000 </r>
       <r>    7.8245    0.0000 </r>
       <r>    8.4642    0.0000 </r>
       <r>    8.7915    0.0000 </r>
       <r>    8.8822    0.0000 </r>
       <r>    9.0966    0.0000 </r>
       <r>    9.8835    0.0000 </r>
       <r>   10.4093    0.0000 </r>
      </set>
     </set>
    </set>
   </array>
  </eigenvalues>
  <separator name="orbital magnetization" >
   <v name="MAGDIPOLOUT">      0.00000000      0.00000000      0.00000000</v>
  </separator>
  <dos>
   <i name="efermi">      5.80853860 </i>
   <total>
    <array>
     <dimension dim="1">gridpoints</dimension>
     <dimension dim="2">spin</dimension>
     <field>energy</field>
     <field>total</field>
     <field>integrated</field>
     <set>
      <set comment="spin 1">
       <r>    -7.0063     0.0000     0.0000 </r>
       <r>    -6.9438     0.0000     0.0000 </r>
       <r>    -6.8814     0.0000     0.0000 </r>
       <r>    -6.8190     0.0000     0.0000 </r>
       <r>    -6.7565     0.0000     0.0000 </r>
       <r>    -6.6941     0.0000     0.0000 </r>
       <r>    -6.6317     0.0000     0.0000 </r>
       <r>    -6.5692     0.0000     0.0000 </r>
       <r>    -6.5068     0.0000     0.0000 </r>
       <r>    -6.4444     0.0000     0.0000 </r>
       <r>    -6.3819     0.0000     0.0000 </r>
       <r>    -6.3195     0.0000     0.0000 </r>
       <r>    -6.2571     0.0000     0.0000 </r>
       <r>    -6.1946     0.0000     0.0000 </r>
       <r>    -6.1322     0.0693     0.0043 </r>
       <r>    -6.0697     0.3391     0.0255 </r>
       <r>    -6.0073     0.3841     0.0495 </r>
       <r>    -5.9449     0.7804     0.0982 </r>
       <r>    -5.8824     0.4163     0.1242 </r>
       <r>    -5.8200     0.8291     0.1760 </r>
       <r>    -5.7576     0.9742     0.2368 </r>
       <r>    -5.6951     1.2694     0.3161 </r>
       <r>    -5.6327     0.7584     0.3635 </r>
       <r>    -5.5703     0.7149     0.4082 </r>
       <r>    -5.5078     1.0308     0.4726 </r>
       <r>    -5.4454     1.3104     0.5544 </r>
       <r>    -5.3830     1.5706     0.6525 </r>
       <r>    -5.3205     1.3735     0.7382 </r>
       <r>    -5.2581     1.2504     0.8163 </r>
       <r>    -5.1957     1.3581     0.9011 </r>
       <r>    -5.1332     1.5115     0.9955 </r>
       <r>    -5.0708     1.6444     1.0982 </r>
       <r>    -5.0083     1.2600     1.1769 </r>
       <r>    -4.9459     1.4930     1.2702 </r>
       <r>    -4.8835     1.7949     1.3823 </r>
       <r>    -4.8210     2.1487     1.5165 </r>
       <r>    -4.7586     1.3676     1.6019 </r>
       <r>    -4.6962     2.0975     1.7329 </r>
       <r>    -4.6337     2.1665     1.8681 </r>
       <r>    -4.5713     1.6520     1.9713 </r>
       <r>    -4.5089     2.2106     2.1093 </r>
       <r>    -4.4464     1.6206     2.2105 </r>
       <r>    -4.3840     1.9362     2.3315 </r>
       <r>    -4.3216     3.0822     2.5240 </r>
       <r>    -4.2591     1.9111     2.6434 </r>
       <r>    -4.1967     2.1767     2.7793 </r>
       <r>    -4.1343     3.0740     2.9712 </r>
       <r>    -4.0718     2.0655     3.1002 </r>
       <r>    -4.0094     3.3227     3.3078 </r>
       <r>    -3.9470     2.6894     3.4758 </r>
       <r>    -3.8845     3.6494     3.7036 </r>
       <r>    -3.8221     1.9416     3.8249 </r>
       <r>    -3.7596     2.9970     4.0121 </r>
       <r>    -3.6972     3.9007     4.2556 </r>
       <r>    -3.6348     4.5768     4.5414 </r>
       <r>    -3.5723     3.0753     4.7335 </r>
       <r>    -3.5099     3.6755     4.9630 </r>
       <r>    -3.4475     3.2973     5.1689 </r>
       <r>    -3.3850     2.0233     5.2953 </r>
       <r>    -3.3226     2.3569     5.4425 </r>
       <r>    -3.2602     3.5645     5.6651 </r>
       <r>    -3.1977     2.6865     5.8328 </r>
       <r>    -3.1353     3.1671     6.0306 </r>
       <r>    -3.0729     2.8658     6.2095 </r>
       <r>    -3.0104     2.1668     6.3449 </r>
       <r>    -2.9480     2.5154     6.5019 </r>
       <r>    -2.8856     1.9472     6.6235 </r>
       <r>    -2.8231     2.1132     6.7556 </r>
       <r>    -2.7607     2.4562     6.9089 </r>
       <r>    -2.6982     2.6060     7.0716 </r>
       <r>    -2.6358     2.4915     7.2272 </r>
       <r>    -2.5734     1.4248     7.3162 </r>
       <r>    -2.5109     1.1218     7.3862 </r>
       <r>    -2.4485     1.4766     7.4784 </r>
       <r>    -2.3861     1.8388     7.5932 </r>
       <r>    -2.3236     1.7024     7.6995 </r>
       <r>    -2.2612     0.9587     7.7594 </r>
       <r>    -2.1988     1.5222     7.8544 </r>
       <r>    -2.1363     1.1508     7.9264 </r>
       <r>    -2.0739     0.7858     7.9754 </r>
       <r>    -2.0115     0.2482     7.9909 </r>
       <r>    -1.9490     0.1375     7.9995 </r>
       <r>    -1.8866     0.2843     8.0173 </r>
       <r>    -1.8242     0.6841     8.0600 </r>
       <r>    -1.7617     0.7069     8.1041 </r>
       <r>    -1.6993     0.8269     8.1558 </r>
       <r>    -1.6369     0.4521     8.1841 </r>
       <r>    -1.5744     1.2390     8.2614 </r>
       <r>    -1.5120     1.5734     8.3597 </r>
       <r>    -1.4495     1.5078     8.4538 </r>
       <r>    -1.3871     2.2804     8.5962 </r>
       <r>    -1.3247     1.3023     8.6776 </r>
       <r>    -1.2622     1.5309     8.7732 </r>
       <r>    -1.1998     2.2845     8.9159 </r>
       <r>    -1.1374     3.0456     9.1061 </r>
       <r>    -1.0749     4.0353     9.3580 </r>
       <r>    -1.0125     5.3805     9.6940 </r>
       <r>    -0.9501     8.0529    10.1969 </r>
       <r>    -0.8876     4.1994    10.4591 </r>
       <r>    -0.8252     4.5018    10.7402 </r>
       <r>    -0.7628     3.4985    10.9587 </r>
       <r>    -0.7003     3.5760    11.1820 </r>
       <r>    -0.6379     3.6237    11.4083 </r>
       <r>    -0.5755     4.1793    11.6692 </r>
       <r>    -0.5130     2.0278    11.7959 </r>
       <r>    -0.4506     1.4101    11.8839 </r>
       <r>    -0.3881     2.2648    12.0254 </r>
       <r>    -0.3257     2.2804    12.1677 </r>
       <r>    -0.2633     2.4347    12.3198 </r>
       <r>    -0.2008     2.1482    12.4539 </r>
       <r>    -0.1384     2.6399    12.6187 </r>
       <r>    -0.0760     2.2457    12.7590 </r>
       <r>    -0.0135     1.8730    12.8759 </r>
       <r>     0.0489     1.0202    12.9397 </r>
       <r>     0.1113     2.3720    13.0878 </r>
       <r>     0.1738     2.1407    13.2215 </r>
       <r>     0.2362     1.4622    13.3128 </r>
       <r>     0.2986     1.5688    13.4108 </r>
       <r>     0.3611     1.2358    13.4880 </r>
       <r>     0.4235     1.1248    13.5583 </r>
       <r>     0.4859     2.0699    13.6875 </r>
       <r>     0.5484     1.4117    13.7757 </r>
       <r>     0.6108     1.4914    13.8688 </r>
       <r>     0.6732     1.0206    13.9326 </r>
       <r>     0.7357     0.7302    13.9782 </r>
       <r>     0.7981     0.7657    14.0260 </r>
       <r>     0.8606     1.1692    14.0990 </r>
       <r>     0.9230     1.4608    14.1902 </r>
       <r>     0.9854     1.4528    14.2809 </r>
       <r>     1.0479     1.3439    14.3648 </r>
       <r>     1.1103     1.2117    14.4405 </r>
       <r>     1.1727     0.7778    14.4891 </r>
       <r>     1.2352     0.8110    14.5397 </r>
       <r>     1.2976     0.8869    14.5951 </r>
       <r>     1.3600     1.0710    14.6620 </r>
       <r>     1.4225     1.2859    14.7423 </r>
       <r>     1.4849     2.0004    14.8672 </r>
       <r>     1.5473     2.8569    15.0456 </r>
       <r>     1.6098     4.3974    15.3201 </r>
       <r>     1.6722     4.5514    15.6044 </r>
       <r>     1.7346     5.0136    15.9174 </r>
       <r>     1.7971     3.8791    16.1596 </r>
       <r>     1.8595     4.9092    16.4663 </r>
       <r>     1.9220     4.5408    16.7499 </r>
       <r>     1.9844     4.9142    17.0568 </r>
       <r>     2.0468     2.4686    17.2110 </r>
       <r>     2.1093     4.0837    17.4661 </r>
       <r>     2.1717     6.4862    17.8711 </r>
       <r>     2.2341     4.1998    18.1335 </r>
       <r>     2.2966     3.7193    18.3657 </r>
       <r>     2.3590     4.0620    18.6193 </r>
       <r>     2.4214     3.5445    18.8406 </r>
       <r>     2.4839     2.9818    19.0269 </r>
       <r>     2.5463     2.9073    19.2084 </r>
       <r>     2.6087     6.2254    19.5971 </r>
       <r>     2.6712     6.0460    19.9747 </r>
       <r>     2.7336     5.2703    20.3039 </r>
       <r>     2.7960     3.9486    20.5504 </r>
       <r>     2.8585     5.5230    20.8953 </r>
       <r>     2.9209     5.2529    21.2233 </r>
       <r>     2.9833     5.8493    21.5886 </r>
       <r>     3.0458     7.2206    22.0395 </r>
       <r>     3.1082     5.9107    22.4086 </r>
       <r>     3.1707     6.4670    22.8125 </r>
       <r>     3.2331     5.6380    23.1645 </r>
       <r>     3.2955     5.5281    23.5097 </r>
       <r>     3.3580     4.8390    23.8119 </r>
       <r>     3.4204     4.9938    24.1238 </r>
       <r>     3.4828     5.0976    24.4421 </r>
       <r>     3.5453     8.1627    24.9518 </r>
       <r>     3.6077     5.2702    25.2809 </r>
       <r>     3.6701     5.4435    25.6208 </r>
       <r>     3.7326     4.3402    25.8918 </r>
       <r>     3.7950     4.1949    26.1539 </r>
       <r>     3.8574     5.3060    26.4853 </r>
       <r>     3.9199     5.6205    26.8364 </r>
       <r>     3.9823     5.2145    27.1620 </r>
       <r>     4.0447     5.9638    27.5344 </r>
       <r>     4.1072     5.6653    27.8881 </r>
       <r>     4.1696     5.1276    28.2084 </r>
       <r>     4.2321     4.4550    28.4866 </r>
       <r>     4.2945     3.2264    28.6881 </r>
       <r>     4.3569     5.3027    29.0192 </r>
       <r>     4.4194     4.7051    29.3130 </r>
       <r>     4.4818     3.8897    29.5559 </r>
       <r>     4.5442     4.2192    29.8194 </r>
       <r>     4.6067     4.0104    30.0698 </r>
       <r>     4.6691     3.4431    30.2848 </r>
       <r>     4.7315     4.2229    30.5485 </r>
       <r>     4.7940     3.0327    30.7379 </r>
       <r>     4.8564     2.1713    30.8735 </r>
       <r>     4.9188     2.4827    31.0285 </r>
       <r>     4.9813     2.1766    31.1645 </r>
       <r>     5.0437     1.3327    31.2478 </r>
       <r>     5.1061     2.3980    31.3976 </r>
       <r>     5.1686     1.3500    31.4819 </r>
       <r>     5.2310     1.3297    31.5649 </r>
       <r>     5.2934     1.3062    31.6465 </r>
       <r>     5.3559     1.3114    31.7284 </r>
       <r>     5.4183     1.0438    31.7936 </r>
       <r>     5.4808     0.9246    31.8513 </r>
       <r>     5.5432     0.7600    31.8988 </r>
       <r>     5.6056     0.6290    31.9380 </r>
       <r>     5.6681     0.6763    31.9803 </r>
       <r>     5.7305     0.1103    31.9872 </r>
       <r>     5.7929     0.2056    32.0000 </r>
       <r>     5.8554     0.0000    32.0000 </r>
       <r>     5.9178     0.0000    32.0000 </r>
       <r>     5.9802     0.0000    32.0000 </r>
       <r>     6.0427     0.0000    32.0000 </r>
       <r>     6.1051     0.0000    32.0000 </r>
       <r>     6.1675     0.0000    32.0000 </r>
       <r>     6.2300     0.0000    32.0000 </r>
       <r>     6.2924     0.0000    32.0000 </r>
       <r>     6.3548     0.1353    32.0084 </r>
       <r>     6.4173     0.0651    32.0125 </r>
       <r>     6.4797     0.6197    32.0512 </r>
       <r>     6.5422     1.0204    32.1149 </r>
       <r>     6.6046     1.1886    32.1891 </r>
       <r>     6.6670     1.1402    32.2603 </r>
       <r>     6.7295     0.7015    32.3041 </r>
       <r>     6.7919     1.7477    32.4133 </r>
       <r>     6.8543     1.4815    32.5058 </r>
       <r>     6.9168     1.4458    32.5961 </r>
       <r>     6.9792     2.1717    32.7317 </r>
       <r>     7.0416     2.3739    32.8799 </r>
       <r>     7.1041     1.9709    33.0030 </r>
       <r>     7.1665     1.2203    33.0792 </r>
       <r>     7.2289     3.6300    33.3058 </r>
       <r>     7.2914     3.0926    33.4990 </r>
       <r>     7.3538     3.4423    33.7139 </r>
       <r>     7.4162     2.6133    33.8771 </r>
       <r>     7.4787     2.8329    34.0540 </r>
       <r>     7.5411     3.2315    34.2558 </r>
       <r>     7.6035     3.5900    34.4799 </r>
       <r>     7.6660     4.7195    34.7746 </r>
       <r>     7.7284     5.0575    35.0905 </r>
       <r>     7.7909     5.0136    35.4036 </r>
       <r>     7.8533     4.3029    35.6723 </r>
       <r>     7.9157     6.3663    36.0699 </r>
       <r>     7.9782     6.3517    36.4666 </r>
       <r>     8.0406     5.1795    36.7901 </r>
       <r>     8.1030     5.8760    37.1570 </r>
       <r>     8.1655     6.4373    37.5590 </r>
       <r>     8.2279     6.1982    37.9461 </r>
       <r>     8.2903     5.0435    38.2610 </r>
       <r>     8.3528     5.7083    38.6175 </r>
       <r>     8.4152     6.0164    38.9931 </r>
       <r>     8.4776     5.7772    39.3539 </r>
       <r>     8.5401     3.8804    39.5962 </r>
       <r>     8.6025     4.3669    39.8689 </r>
       <r>     8.6649     4.4942    40.1495 </r>
       <r>     8.7274     4.8618    40.4531 </r>
       <r>     8.7898     4.7669    40.7508 </r>
       <r>     8.8523     4.6060    41.0384 </r>
       <r>     8.9147     3.6120    41.2641 </r>
       <r>     8.9771     6.9308    41.6969 </r>
       <r>     9.0396     8.9819    42.2577 </r>
       <r>     9.1020     9.1125    42.8267 </r>
       <r>     9.1644     7.0087    43.2644 </r>
       <r>     9.2269     7.8781    43.7563 </r>
       <r>     9.2893     6.3301    44.1516 </r>
       <r>     9.3517     5.8265    44.5155 </r>
       <r>     9.4142     5.2632    44.8442 </r>
       <r>     9.4766     4.1522    45.1035 </r>
       <r>     9.5390     5.6490    45.4562 </r>
       <r>     9.6015     4.7515    45.7529 </r>
       <r>     9.6639     6.2659    46.1442 </r>
       <r>     9.7263     4.3671    46.4170 </r>
       <r>     9.7888     2.9737    46.6027 </r>
       <r>     9.8512     3.1613    46.8001 </r>
       <r>     9.9136     2.8084    46.9755 </r>
       <r>     9.9761     2.3555    47.1225 </r>
       <r>    10.0385     1.7886    47.2342 </r>
       <r>    10.1010     1.9135    47.3538 </r>
       <r>    10.1634     1.5781    47.4523 </r>
       <r>    10.2258     1.5445    47.5488 </r>
       <r>    10.2883     1.2603    47.6275 </r>
       <r>    10.3507     0.8921    47.6832 </r>
       <r>    10.4131     1.5021    47.7770 </r>
       <r>    10.4756     1.4494    47.8676 </r>
       <r>    10.5380     0.7712    47.9158 </r>
       <r>    10.6004     0.3350    47.9367 </r>
       <r>    10.6629     0.1823    47.9481 </r>
       <r>    10.7253     0.1589    47.9580 </r>
       <r>    10.7877     0.1184    47.9654 </r>
       <r>    10.8502     0.2503    47.9810 </r>
       <r>    10.9126     0.3044    48.0000 </r>
       <r>    10.9750     0.0000    48.0000 </r>
       <r>    11.0375     0.0000    48.0000 </r>
       <r>    11.0999     0.0000    48.0000 </r>
       <r>    11.1624     0.0000    48.0000 </r>
       <r>    11.2248     0.0000    48.0000 </r>
       <r>    11.2872     0.0000    48.0000 </r>
       <r>    11.3497     0.0000    48.0000 </r>
       <r>    11.4121     0.0000    48.0000 </r>
       <r>    11.4745     0.0000    48.0000 </r>
       <r>    11.5370     0.0000    48.0000 </r>
       <r>    11.5994     0.0000    48.0000 </r>
       <r>    11.6618     0.0000    48.0000 </r>
       <r>    11.7243     0.0000    48.0000 </r>
      </set>
     </set>
    </array>
   </total>
  </dos>
 </calculation>
 <structure name="finalpos" >
  <crystal>
   <varray name="basis" >
    <v>      -2.72185119       2.72185119       5.44370237 </v>
    <v>       2.72185119      -5.44370237       2.72185119 </v>
    <v>       2.72185119       2.72185119       0.00000000 </v>
   </varray>
   <i name="volume">    161.31810740 </i>
   <varray name="rec_basis" >
    <v>      -0.04592463       0.04592463       0.13777388 </v>
    <v>       0.09184925      -0.09184925       0.09184925 </v>
    <v>       0.22962313       0.13777388       0.04592463 </v>
   </varray>
  </crystal>
  <varray name="positions" >
   <v>       0.00000000       0.00149989       0.00000000 </v>
   <v>       0.50000000       0.00000000       0.50000000 </v>
   <v>       0.25000000       0.50000000       0.75000000 </v>
   <v>       0.75000000       0.50000000       0.25000000 </v>
   <v>       0.18750000       0.12500000       0.56250000 </v>
   <v>       0.68750000       0.12500000       0.06250000 </v>
   <v>       0.43750000       0.62500000       0.31250000 </v>
   <v>       0.93750000       0.62500000       0.81250000 </v>
  </varray>
 </structure>
</modeling>
