<?xml version="1.0" encoding="ISO-8859-1"?>
<modeling>
 <generator>
  <i name="program" type="string">vasp </i>
  <i name="version" type="string">6.4.3  </i>
  <i name="subversion" type="string">19Mar24 (build Jun 20 2024 15:56:09) complex                          parallel </i>
  <i name="platform" type="string">LinuxNV_CrayMPICH </i>
  <i name="date" type="string">2025 01 07 </i>
  <i name="time" type="string">18:36:38 </i>
 </generator>
 <incar>
  <i type="string" name="PREC">Accurate</i>
  <i type="int" name="IBRION">    -1</i>
  <i name="EDIFF">      0.00000001</i>
  <i type="int" name="NSW">     0</i>
  <i name="ENCUT">    500.00000000</i>
  <i type="logical" name="LREAL"> F  </i>
  <i type="int" name="ISMEAR">     0</i>
  <i name="SIGMA">      0.01000000</i>
  <i type="logical" name="LWAVE"> F  </i>
  <i type="logical" name="LCHARG"> F  </i>
 </incar>
 <primitive_cell>
  <structure name="primitive_cell" >
   <crystal>
    <varray name="basis" >
     <v>      16.57479336       0.00000000       0.00000000 </v>
     <v>       0.00000000       4.14369834       0.00000000 </v>
     <v>       0.00000000       0.00000000       4.14369834 </v>
    </varray>
    <i name="volume">    284.59311253 </i>
    <varray name="rec_basis" >
     <v>       0.06033258      -0.00000000       0.00000000 </v>
     <v>       0.00000000       0.24133031       0.00000000 </v>
     <v>      -0.00000000      -0.00000000       0.24133031 </v>
    </varray>
   </crystal>
   <varray name="positions" >
    <v>       0.00058531       0.00058531       1.00000000 </v>
    <v>       0.25000000       0.00000000       1.00000000 </v>
    <v>       0.50000000       0.00000000       1.00000000 </v>
    <v>       0.75000000       0.00000000       1.00000000 </v>
    <v>       0.12500000       0.50000000       0.50000000 </v>
    <v>       0.37500000       0.50000000       0.50000000 </v>
    <v>       0.62500000       0.50000000       0.50000000 </v>
    <v>       0.87500000       0.50000000       0.50000000 </v>
   </varray>
  </structure>
  <varray name="primitive_index" >
   <v type="int" >        1 </v>
   <v type="int" >        2 </v>
   <v type="int" >        3 </v>
   <v type="int" >        4 </v>
   <v type="int" >        5 </v>
   <v type="int" >        6 </v>
   <v type="int" >        7 </v>
   <v type="int" >        8 </v>
  </varray>
 </primitive_cell>
 <kpoints>
  <generation param="Gamma">
   <v type="int" name="divisions">       3       10       10 </v>
   <v name="usershift">      0.00000000       0.00000000       0.00000000 </v>
   <v name="genvec1">      0.33333333       0.00000000       0.00000000 </v>
   <v name="genvec2">      0.00000000       0.10000000       0.00000000 </v>
   <v name="genvec3">     -0.00000000      -0.00000000       0.10000000 </v>
   <v name="shift">      0.00000000       0.00000000       0.00000000 </v>
  </generation>
  <varray name="kpointlist" >
   <v>       0.00000000       0.00000000       0.00000000 </v>
   <v>       0.33333333       0.00000000       0.00000000 </v>
   <v>       0.00000000       0.10000000       0.00000000 </v>
   <v>       0.00000000       0.00000000       0.10000000 </v>
   <v>       0.33333333       0.10000000       0.00000000 </v>
   <v>       0.33333333       0.00000000       0.10000000 </v>
   <v>       0.33333333      -0.10000000       0.00000000 </v>
   <v>       0.00000000       0.20000000       0.00000000 </v>
   <v>       0.00000000       0.00000000       0.20000000 </v>
   <v>       0.33333333       0.20000000       0.00000000 </v>
   <v>       0.33333333       0.00000000       0.20000000 </v>
   <v>       0.33333333      -0.20000000       0.00000000 </v>
   <v>       0.00000000       0.30000000       0.00000000 </v>
   <v>       0.00000000       0.00000000       0.30000000 </v>
   <v>       0.33333333       0.30000000       0.00000000 </v>
   <v>       0.33333333       0.00000000       0.30000000 </v>
   <v>       0.33333333      -0.30000000       0.00000000 </v>
   <v>       0.00000000       0.40000000       0.00000000 </v>
   <v>       0.00000000       0.00000000       0.40000000 </v>
   <v>       0.33333333       0.40000000       0.00000000 </v>
   <v>       0.33333333       0.00000000       0.40000000 </v>
   <v>       0.33333333      -0.40000000       0.00000000 </v>
   <v>       0.00000000       0.50000000       0.00000000 </v>
   <v>       0.00000000       0.00000000       0.50000000 </v>
   <v>       0.33333333       0.50000000       0.00000000 </v>
   <v>       0.33333333       0.00000000       0.50000000 </v>
   <v>       0.00000000       0.10000000       0.10000000 </v>
   <v>       0.33333333       0.10000000       0.10000000 </v>
   <v>       0.33333333      -0.10000000       0.10000000 </v>
   <v>       0.00000000       0.20000000       0.10000000 </v>
   <v>       0.00000000      -0.10000000       0.20000000 </v>
   <v>       0.33333333       0.20000000       0.10000000 </v>
   <v>       0.33333333      -0.10000000       0.20000000 </v>
   <v>       0.33333333      -0.20000000      -0.10000000 </v>
   <v>       0.33333333       0.10000000      -0.20000000 </v>
   <v>       0.00000000       0.30000000       0.10000000 </v>
   <v>       0.00000000      -0.10000000       0.30000000 </v>
   <v>       0.33333333       0.30000000       0.10000000 </v>
   <v>       0.33333333      -0.10000000       0.30000000 </v>
   <v>       0.33333333      -0.30000000      -0.10000000 </v>
   <v>       0.33333333       0.10000000      -0.30000000 </v>
   <v>       0.00000000       0.40000000       0.10000000 </v>
   <v>       0.00000000      -0.10000000       0.40000000 </v>
   <v>       0.33333333       0.40000000       0.10000000 </v>
   <v>       0.33333333      -0.10000000       0.40000000 </v>
   <v>       0.33333333      -0.40000000      -0.10000000 </v>
   <v>       0.33333333       0.10000000      -0.40000000 </v>
   <v>       0.00000000       0.50000000       0.10000000 </v>
   <v>       0.00000000      -0.10000000       0.50000000 </v>
   <v>       0.33333333       0.50000000       0.10000000 </v>
   <v>       0.33333333      -0.10000000       0.50000000 </v>
   <v>       0.33333333       0.10000000       0.50000000 </v>
   <v>       0.00000000       0.20000000       0.20000000 </v>
   <v>       0.33333333       0.20000000       0.20000000 </v>
   <v>       0.33333333      -0.20000000       0.20000000 </v>
   <v>       0.00000000       0.30000000       0.20000000 </v>
   <v>       0.00000000      -0.20000000       0.30000000 </v>
   <v>       0.33333333       0.30000000       0.20000000 </v>
   <v>       0.33333333      -0.20000000       0.30000000 </v>
   <v>       0.33333333      -0.30000000      -0.20000000 </v>
   <v>       0.33333333       0.20000000      -0.30000000 </v>
   <v>       0.00000000       0.40000000       0.20000000 </v>
   <v>       0.00000000      -0.20000000       0.40000000 </v>
   <v>       0.33333333       0.40000000       0.20000000 </v>
   <v>       0.33333333      -0.20000000       0.40000000 </v>
   <v>       0.33333333      -0.40000000      -0.20000000 </v>
   <v>       0.33333333       0.20000000      -0.40000000 </v>
   <v>       0.00000000       0.50000000       0.20000000 </v>
   <v>       0.00000000      -0.20000000       0.50000000 </v>
   <v>       0.33333333       0.50000000       0.20000000 </v>
   <v>       0.33333333      -0.20000000       0.50000000 </v>
   <v>       0.33333333       0.20000000       0.50000000 </v>
   <v>       0.00000000       0.30000000       0.30000000 </v>
   <v>       0.33333333       0.30000000       0.30000000 </v>
   <v>       0.33333333      -0.30000000       0.30000000 </v>
   <v>       0.00000000       0.40000000       0.30000000 </v>
   <v>       0.00000000      -0.30000000       0.40000000 </v>
   <v>       0.33333333       0.40000000       0.30000000 </v>
   <v>       0.33333333      -0.30000000       0.40000000 </v>
   <v>       0.33333333      -0.40000000      -0.30000000 </v>
   <v>       0.33333333       0.30000000      -0.40000000 </v>
   <v>       0.00000000       0.50000000       0.30000000 </v>
   <v>       0.00000000      -0.30000000       0.50000000 </v>
   <v>       0.33333333       0.50000000       0.30000000 </v>
   <v>       0.33333333      -0.30000000       0.50000000 </v>
   <v>       0.33333333       0.30000000       0.50000000 </v>
   <v>       0.00000000       0.40000000       0.40000000 </v>
   <v>       0.33333333       0.40000000       0.40000000 </v>
   <v>       0.33333333      -0.40000000       0.40000000 </v>
   <v>       0.00000000       0.50000000       0.40000000 </v>
   <v>       0.00000000      -0.40000000       0.50000000 </v>
   <v>       0.33333333       0.50000000       0.40000000 </v>
   <v>       0.33333333      -0.40000000       0.50000000 </v>
   <v>       0.33333333       0.40000000       0.50000000 </v>
   <v>       0.00000000       0.50000000       0.50000000 </v>
   <v>       0.33333333       0.50000000       0.50000000 </v>
  </varray>
  <varray name="weights" >
   <v>       0.00333333 </v>
   <v>       0.00666667 </v>
   <v>       0.00666667 </v>
   <v>       0.00666667 </v>
   <v>       0.00666667 </v>
   <v>       0.01333333 </v>
   <v>       0.00666667 </v>
   <v>       0.00666667 </v>
   <v>       0.00666667 </v>
   <v>       0.00666667 </v>
   <v>       0.01333333 </v>
   <v>       0.00666667 </v>
   <v>       0.00666667 </v>
   <v>       0.00666667 </v>
   <v>       0.00666667 </v>
   <v>       0.01333333 </v>
   <v>       0.00666667 </v>
   <v>       0.00666667 </v>
   <v>       0.00666667 </v>
   <v>       0.00666667 </v>
   <v>       0.01333333 </v>
   <v>       0.00666667 </v>
   <v>       0.00333333 </v>
   <v>       0.00333333 </v>
   <v>       0.00666667 </v>
   <v>       0.00666667 </v>
   <v>       0.01333333 </v>
   <v>       0.01333333 </v>
   <v>       0.01333333 </v>
   <v>       0.01333333 </v>
   <v>       0.01333333 </v>
   <v>       0.01333333 </v>
   <v>       0.01333333 </v>
   <v>       0.01333333 </v>
   <v>       0.01333333 </v>
   <v>       0.01333333 </v>
   <v>       0.01333333 </v>
   <v>       0.01333333 </v>
   <v>       0.01333333 </v>
   <v>       0.01333333 </v>
   <v>       0.01333333 </v>
   <v>       0.01333333 </v>
   <v>       0.01333333 </v>
   <v>       0.01333333 </v>
   <v>       0.01333333 </v>
   <v>       0.01333333 </v>
   <v>       0.01333333 </v>
   <v>       0.00666667 </v>
   <v>       0.00666667 </v>
   <v>       0.01333333 </v>
   <v>       0.00666667 </v>
   <v>       0.00666667 </v>
   <v>       0.01333333 </v>
   <v>       0.01333333 </v>
   <v>       0.01333333 </v>
   <v>       0.01333333 </v>
   <v>       0.01333333 </v>
   <v>       0.01333333 </v>
   <v>       0.01333333 </v>
   <v>       0.01333333 </v>
   <v>       0.01333333 </v>
   <v>       0.01333333 </v>
   <v>       0.01333333 </v>
   <v>       0.01333333 </v>
   <v>       0.01333333 </v>
   <v>       0.01333333 </v>
   <v>       0.01333333 </v>
   <v>       0.00666667 </v>
   <v>       0.00666667 </v>
   <v>       0.01333333 </v>
   <v>       0.00666667 </v>
   <v>       0.00666667 </v>
   <v>       0.01333333 </v>
   <v>       0.01333333 </v>
   <v>       0.01333333 </v>
   <v>       0.01333333 </v>
   <v>       0.01333333 </v>
   <v>       0.01333333 </v>
   <v>       0.01333333 </v>
   <v>       0.01333333 </v>
   <v>       0.01333333 </v>
   <v>       0.00666667 </v>
   <v>       0.00666667 </v>
   <v>       0.01333333 </v>
   <v>       0.00666667 </v>
   <v>       0.00666667 </v>
   <v>       0.01333333 </v>
   <v>       0.01333333 </v>
   <v>       0.01333333 </v>
   <v>       0.00666667 </v>
   <v>       0.00666667 </v>
   <v>       0.01333333 </v>
   <v>       0.00666667 </v>
   <v>       0.00666667 </v>
   <v>       0.00333333 </v>
   <v>       0.00666667 </v>
  </varray>
 </kpoints>
 <parameters>
  <separator name="general" >
   <i type="string" name="SYSTEM">unknown system</i>
   <i type="logical" name="LCOMPAT"> F  </i>
  </separator>
  <separator name="electronic" >
   <i type="string" name="PREC">accura</i>
   <i name="ENMAX">    500.00000000</i>
   <i name="ENAUG">    407.93300000</i>
   <i name="EDIFF">      0.00000001</i>
   <i type="int" name="IALGO">    38</i>
   <i type="int" name="IWAVPR">    10</i>
   <i type="int" name="NBANDS">    40</i>
   <i type="int" name="NBANDSLOW">    -1</i>
   <i type="int" name="NBANDSHIGH">    -1</i>
   <i name="NELECT">     64.00000000</i>
   <i type="int" name="TURBO">     0</i>
   <i type="int" name="IRESTART">     0</i>
   <i type="int" name="NREBOOT">     0</i>
   <i type="int" name="NMIN">     0</i>
   <i name="EREF">      0.00000000</i>
   <separator name="electronic smearing" >
    <i type="int" name="ISMEAR">     0</i>
    <i name="SIGMA">      0.01000000</i>
    <i name="KSPACING">      0.50000000</i>
    <i type="logical" name="KGAMMA"> T  </i>
    <i type="logical" name="KBLOWUP"> T  </i>
   </separator>
   <separator name="electronic projectors" >
    <i type="logical" name="LREAL"> F  </i>
    <v name="ROPT">      0.00000000      0.00000000</v>
    <i type="int" name="LMAXPAW">  -100</i>
    <i type="int" name="LMAXMIX">     2</i>
    <i type="logical" name="NLSPLINE"> F  </i>
   </separator>
   <separator name="electronic startup" >
    <i type="int" name="ISTART">     0</i>
    <i type="int" name="ICHARG">     2</i>
    <i type="int" name="INIWAV">     1</i>
   </separator>
   <separator name="electronic spin" >
    <i type="int" name="ISPIN">     1</i>
    <i type="logical" name="LNONCOLLINEAR"> F  </i>
    <v name="MAGMOM">      1.00000000      1.00000000      1.00000000      1.00000000      1.00000000      1.00000000      1.00000000      1.00000000</v>
    <i name="NUPDOWN">     -1.00000000</i>
    <i type="logical" name="LSORBIT"> F  </i>
    <v name="SAXIS">      0.00000000      0.00000000      1.00000000</v>
    <i type="logical" name="LSPIRAL"> F  </i>
    <v name="QSPIRAL">      0.00000000      0.00000000      0.00000000</v>
    <i type="logical" name="LZEROZ"> F  </i>
   </separator>
   <separator name="electronic exchange-correlation" >
    <i type="logical" name="LASPH"> F  </i>
   </separator>
   <separator name="electronic convergence" >
    <i type="int" name="NELM">    60</i>
    <i type="int" name="NELMDL">    -5</i>
    <i type="int" name="NELMIN">     2</i>
    <i name="ENINI">    500.00000000</i>
    <separator name="electronic convergence detail" >
     <i type="logical" name="LDIAG"> T  </i>
     <i type="logical" name="LSUBROT"> F  </i>
     <i name="WEIMIN">      0.00000000</i>
     <i name="EBREAK">      0.00000000</i>
     <i name="DEPER">      0.30000000</i>
     <i type="int" name="NRMM">     4</i>
     <i name="TIME">      0.40000000</i>
    </separator>
   </separator>
   <separator name="electronic mixer" >
    <i name="AMIX">      0.40000000</i>
    <i name="BMIX">      1.00000000</i>
    <i name="AMIN">      0.10000000</i>
    <i name="AMIX_MAG">      1.60000000</i>
    <i name="BMIX_MAG">      1.00000000</i>
    <separator name="electronic mixer details" >
     <i type="int" name="IMIX">     4</i>
     <i type="logical" name="MIXFIRST"> F  </i>
     <i type="int" name="MAXMIX">   -45</i>
     <i name="WC">    100.00000000</i>
     <i type="int" name="INIMIX">     1</i>
     <i type="int" name="MIXPRE">     1</i>
     <i type="int" name="MREMOVE">     5</i>
    </separator>
   </separator>
   <separator name="electronic dipolcorrection" >
    <i type="logical" name="LDIPOL"> F  </i>
    <i type="logical" name="LMONO"> F  </i>
    <i type="int" name="IDIPOL">     0</i>
    <i name="EPSILON">      1.00000000</i>
    <v name="DIPOL">   -100.00000000   -100.00000000   -100.00000000</v>
    <i name="EFIELD">      0.00000000</i>
    <i type="logical" name="LVACPOTAV"> F  </i>
   </separator>
  </separator>
  <separator name="grids" >
   <i type="int" name="NGX">   126</i>
   <i type="int" name="NGY">    30</i>
   <i type="int" name="NGZ">    30</i>
   <i type="int" name="NGXF">   252</i>
   <i type="int" name="NGYF">    60</i>
   <i type="int" name="NGZF">    60</i>
   <i type="logical" name="ADDGRID"> F  </i>
  </separator>
  <separator name="ionic" >
   <i type="int" name="NSW">     0</i>
   <i type="int" name="IBRION">    -1</i>
   <i type="int" name="MDALGO">     0</i>
   <i type="int" name="ISIF">     2</i>
   <i name="PSTRESS">      0.00000000</i>
   <i name="EDIFFG">      0.00000010</i>
   <i type="int" name="NFREE">     0</i>
   <i name="POTIM">      0.50000000</i>
   <i name="SMASS">     -3.00000000</i>
   <i name="SCALEE">      1.00000000</i>
  </separator>
  <separator name="ionic md" >
   <i name="TEBEG">      0.00010000</i>
   <i name="TEEND">      0.00010000</i>
   <i type="int" name="NBLOCK">     1</i>
   <i type="int" name="KBLOCK">     1</i>
   <i type="int" name="NPACO">   256</i>
   <i name="APACO">     10.00000000</i>
  </separator>
  <separator name="symmetry" >
   <i type="int" name="ISYM">     2</i>
   <i name="SYMPREC">      0.00001000</i>
  </separator>
  <separator name="dos" >
   <i type="int" name="LORBIT">     0</i>
   <v name="RWIGS">     -1.00000000     -1.00000000</v>
   <i type="int" name="NEDOS">   301</i>
   <i name="EMIN">     10.00000000</i>
   <i name="EMAX">    -10.00000000</i>
   <i name="EFERMI">      0.00000000</i>
  </separator>
  <separator name="writing" >
   <i type="int" name="NWRITE">     2</i>
   <i type="logical" name="LWAVE"> F  </i>
   <i type="logical" name="LDOWNSAMPLE"> F  </i>
   <i type="logical" name="LCHARG"> F  </i>
   <i type="logical" name="LPARD"> F  </i>
   <i type="logical" name="LVTOT"> F  </i>
   <i type="logical" name="LVHAR"> F  </i>
   <i type="logical" name="LELF"> F  </i>
   <i type="logical" name="LOPTICS"> F  </i>
   <v name="STM">      0.00000000      0.00000000      0.00000000      0.00000000      0.00000000      0.00000000      0.00000000</v>
  </separator>
  <separator name="performance" >
   <i type="int" name="NPAR">     8</i>
   <i type="int" name="NSIM">     4</i>
   <i type="int" name="NBLK">    -1</i>
   <i type="logical" name="LPLANE"> T  </i>
   <i type="logical" name="LSCALAPACK"> T  </i>
   <i type="logical" name="LSCAAWARE"> F  </i>
   <i type="logical" name="LSCALU"> F  </i>
   <i type="logical" name="LASYNC"> F  </i>
   <i type="logical" name="LORBITALREAL"> F  </i>
  </separator>
  <separator name="miscellaneous" >
   <i type="int" name="IDIOT">     3</i>
   <i type="int" name="PHON_NSTRUCT">    -1</i>
   <i type="logical" name="LMUSIC"> F  </i>
   <v name="POMASS">    132.90000000     35.45300000</v>
   <v name="DARWINR">      0.00000000      0.00000000</v>
   <v name="DARWINV">      1.00000000      1.00000000</v>
   <i type="logical" name="LCORR"> T  </i>
  </separator>
  <i type="logical" name="GGA_COMPAT"> T  </i>
  <i type="logical" name="LBERRY"> F  </i>
  <i type="int" name="ICORELEVEL">     0</i>
  <i type="logical" name="LDAU"> F  </i>
  <i type="int" name="I_CONSTRAINED_M">     0</i>
  <separator name="electronic exchange-correlation" >
   <i type="string" name="GGA    ">PE</i>
   <i type="string" name="XC_C">1</i>
   <i type="int" name="VOSKOWN">     0</i>
   <i type="logical" name="LHFCALC"> F  </i>
   <i type="string" name="PRECFOCK"></i>
   <i type="logical" name="LSYMGRAD"> F  </i>
   <i type="logical" name="LHFONE"> F  </i>
   <i type="logical" name="LRHFCALC"> F  </i>
   <i type="logical" name="LTHOMAS"> F  </i>
   <i type="logical" name="LMODELHF"> F  </i>
   <i type="logical" name="LFOCKACE"> F  </i>
   <i name="ENCUT4O">     -1.00000000</i>
   <i type="int" name="EXXOEP">     0</i>
   <i type="int" name="FOURORBIT">     0</i>
   <i name="AEXX">      0.00000000</i>
   <i name="HFALPHA">      0.00000000</i>
   <i name="MCALPHA">      0.00000000</i>
   <i name="ALDAX">      1.00000000</i>
   <i name="AGGAX">      1.00000000</i>
   <i name="AMGGAX">      1.00000000</i>
   <i name="ALDAC">      1.00000000</i>
   <i name="AGGAC">      1.00000000</i>
   <i name="AMGGAC">      1.00000000</i>
   <i type="int" name="NKREDX">     1</i>
   <i type="int" name="NKREDY">     1</i>
   <i type="int" name="NKREDZ">     1</i>
   <i type="logical" name="SHIFTRED"> F  </i>
   <i type="logical" name="ODDONLY"> F  </i>
   <i type="logical" name="EVENONLY"> F  </i>
   <i type="int" name="LMAXFOCK">     0</i>
   <i type="int" name="NMAXFOCKAE">     0</i>
   <i type="logical" name="LFOCKAEDFT"> F  </i>
   <i name="HFSCREEN">      0.00000000</i>
   <i name="HFSCREENC">      0.00000000</i>
   <i type="int" name="NBANDSGWLOW">     0</i>
  </separator>
  <separator name="vdW DFT" >
   <i type="logical" name="LUSE_VDW"> F  </i>
   <i type="int" name="IVDW_NL">    -1</i>
   <i type="logical" name="LSPIN_VDW"> F  </i>
   <i name="ZAB_VDW">     -0.84910000</i>
   <i name="GAMMA_VDW">      1.39626340</i>
   <i name="ALPHA_VDW">      0.00000000</i>
   <i name="PARAM1">      0.12340000</i>
   <i name="PARAM2">      1.00000000</i>
   <i name="BPARAM">      6.30000000</i>
   <i name="CPARAM">      0.00930000</i>
  </separator>
  <separator name="model GW" >
   <i type="int" name="MODEL_GW">     0</i>
   <i name="MODEL_EPS0">     21.34448344</i>
   <i name="MODEL_ALPHA">      1.00000000</i>
  </separator>
  <separator name="linear response parameters" >
   <i type="logical" name="LEPSILON"> F  </i>
   <i type="logical" name="LRPA"> F  </i>
   <i type="logical" name="LNABLA"> F  </i>
   <i type="logical" name="LVEL"> F  </i>
   <i name="CSHIFT">      0.10000000</i>
   <i name="OMEGAMAX">     -1.00000000</i>
   <i name="DEG_THRESHOLD">      0.00200000</i>
   <i name="RTIME">     -0.10000000</i>
   <i name="WPLASMAI">      0.00000000</i>
   <v name="DFIELD">      0.00000000      0.00000000      0.00000000</v>
   <v name="WPLASMA">      0.00000000      0.00000000      0.00000000      0.00000000      0.00000000      0.00000000      0.00000000      0.00000000      0.00000000</v>
  </separator>
  <separator name="orbital magnetization" >
   <i type="logical" name="NUCIND"> F  </i>
   <v name="MAGPOS">      0.00000000      0.00000000      0.00000000</v>
   <i type="logical" name="LNICSALL"> T  </i>
   <i type="logical" name="ORBITALMAG"> F  </i>
   <i type="logical" name="LMAGBLOCH"> F  </i>
   <i type="logical" name="LCHIMAG"> F  </i>
   <i type="logical" name="LGAUGE"> T  </i>
   <i type="int" name="MAGATOM">     0</i>
   <v name="MAGDIPOL">      0.00000000      0.00000000      0.00000000</v>
   <v name="AVECCONST">      0.00000000      0.00000000      0.00000000</v>
  </separator>
  <separator name="response functions" >
   <i type="logical" name="LALL_IN_ONE"> F  </i>
   <i type="int" name="IALL_IN_ONE">    -1</i>
   <i type="int" name="NBANDS_WAVE">    -1</i>
   <i type="logical" name="LFINITE_TEMPERATURE"> F  </i>
   <i type="logical" name="LADDER"> F  </i>
   <i type="logical" name="LRPAFORCE"> F  </i>
   <i type="logical" name="LFXC"> F  </i>
   <i type="logical" name="LHARTREE"> T  </i>
   <i type="int" name="IBSE">     0</i>
   <v type="int" name="KPOINT">    -1     0     0     0</v>
   <i type="logical" name="LTCTC"> F  </i>
   <i type="logical" name="LTCTE"> F  </i>
   <i type="logical" name="LTETE"> F  </i>
   <i type="logical" name="LTRIPLET"> F  </i>
   <i type="logical" name="LFXCEPS"> F  </i>
   <i type="logical" name="LFXHEG"> F  </i>
   <i type="int" name="NATURALO">     2</i>
   <i type="logical" name="LHOLEGF"> F  </i>
   <i type="logical" name="L2ORDER"> F  </i>
   <i type="logical" name="LDMP1"> F  </i>
   <i type="logical" name="LMP2LT"> F  </i>
   <i type="logical" name="LSMP2LT"> F  </i>
   <i type="logical" name="LGWLF"> F  </i>
   <i name="ENCUTGW">     -1.60000002</i>
   <i name="ENCUTGWSOFT">     -1.60000002</i>
   <i name="ENCUTLF">     -1.00000000</i>
   <i type="logical" name="ESF_SPLINES"> F  </i>
   <i name="ESF_CONV">      0.01000000</i>
   <i type="int" name="ESF_NINTER">    15</i>
   <i type="int" name="LMAXMP2">    -1</i>
   <i name="SCISSOR">      0.00000000</i>
   <i type="int" name="NOMEGA">     0</i>
   <i type="int" name="NOMEGAR">     0</i>
   <i type="int" name="NBANDSGW">    -1</i>
   <i type="int" name="NBANDSO">    -1</i>
   <i type="int" name="NBANDSV">    -1</i>
   <i type="int" name="NELMGW">     1</i>
   <i type="int" name="NELMHF">     1</i>
   <i type="int" name="DIM">     3</i>
   <i type="int" name="IESPILON">     4</i>
   <i type="int" name="ANTIRES">     0</i>
   <i name="OMEGAMAX">    -30.00000000</i>
   <i name="OMEGAMIN">    -30.00000000</i>
   <i name="OMEGATL">   -200.00000000</i>
   <i type="int" name="OMEGAGRID">     0</i>
   <i name="CSHIFT">     -0.10000000</i>
   <i type="logical" name="LSELFENERGY"> F  </i>
   <i type="logical" name="LSPECTRAL"> F  </i>
   <i type="logical" name="LSPECTRALGW"> F  </i>
   <i type="logical" name="LSINGLES"> F  </i>
   <i type="logical" name="LFERMIGW"> F  </i>
   <i type="logical" name="ODDONLYGW"> F  </i>
   <i type="logical" name="EVENONLYGW"> F  </i>
   <i type="int" name="NKREDLFX">     1</i>
   <i type="int" name="NKREDLFY">     1</i>
   <i type="int" name="NKREDLFZ">     1</i>
   <i type="int" name="MAXMEM">  2800</i>
   <i type="int" name="TELESCOPE">     0</i>
   <i type="int" name="NTAUPAR">    -1</i>
   <i type="int" name="NOMEGAPAR">    -1</i>
   <i name="DAMP_NEWTON">      0.80000001</i>
   <i name="LAMBDA">      1.00000000</i>
  </separator>
  <separator name="External order field" >
   <i name="OFIELD_KAPPA">      0.00000000</i>
   <v name="OFIELD_K">      0.00000000      0.00000000      0.00000000</v>
   <i name="OFIELD_Q6_NEAR">      0.00000000</i>
   <i name="OFIELD_Q6_FAR">      0.00000000</i>
   <i name="OFIELD_A">      0.00000000</i>
  </separator>
  <separator name="optional k-points parameters" >
   <i type="int" name="KPOINTS_OPT_MODE">     1</i>
   <i type="logical" name="LKPOINTS_OPT"> F  </i>
  </separator>
 </parameters>
 <atominfo>
  <atoms>       8 </atoms>
  <types>       2 </types>
  <array name="atoms" >
   <dimension dim="1">ion</dimension>
   <field type="string">element</field>
   <field type="int">atomtype</field>
   <set>
    <rc><c>Cs</c><c>   1</c></rc>
    <rc><c>Cs</c><c>   1</c></rc>
    <rc><c>Cs</c><c>   1</c></rc>
    <rc><c>Cs</c><c>   1</c></rc>
    <rc><c>Cl</c><c>   2</c></rc>
    <rc><c>Cl</c><c>   2</c></rc>
    <rc><c>Cl</c><c>   2</c></rc>
    <rc><c>Cl</c><c>   2</c></rc>
   </set>
  </array>
  <array name="atomtypes" >
   <dimension dim="1">type</dimension>
   <field type="int">atomspertype</field>
   <field type="string">element</field>
   <field>mass</field>
   <field>valence</field>
   <field type="string">pseudopotential</field>
   <set>
    <rc><c>   4</c><c>Cs</c><c>    132.90000000</c><c>      9.00000000</c><c>  PAW_PBE Cs_sv 25Jan2019               </c></rc>
    <rc><c>   4</c><c>Cl</c><c>     35.45300000</c><c>      7.00000000</c><c>  PAW_PBE Cl 06Sep2000                  </c></rc>
   </set>
  </array>
 </atominfo>
 <structure name="initialpos" >
  <crystal>
   <varray name="basis" >
    <v>      16.57479336       0.00000000       0.00000000 </v>
    <v>       0.00000000       4.14369834       0.00000000 </v>
    <v>       0.00000000       0.00000000       4.14369834 </v>
   </varray>
   <i name="volume">    284.59311253 </i>
   <varray name="rec_basis" >
    <v>       0.06033258      -0.00000000       0.00000000 </v>
    <v>       0.00000000       0.24133031       0.00000000 </v>
    <v>      -0.00000000      -0.00000000       0.24133031 </v>
   </varray>
  </crystal>
  <varray name="positions" >
   <v>       0.00058531       0.00058531       0.00000000 </v>
   <v>       0.25000000       0.00000000       0.00000000 </v>
   <v>       0.50000000       0.00000000       0.00000000 </v>
   <v>       0.75000000       0.00000000       0.00000000 </v>
   <v>       0.12500000       0.50000000       0.50000000 </v>
   <v>       0.37500000       0.50000000       0.50000000 </v>
   <v>       0.62500000       0.50000000       0.50000000 </v>
   <v>       0.87500000       0.50000000       0.50000000 </v>
  </varray>
 </structure>
 <calculation>
  <scstep>
   <time name="dav">    1.13    1.13</time>
   <time name="total">    1.15    1.15</time>
   <energy>
    <i name="alphaZ">    214.16676563 </i>
    <i name="ewald">  -3265.84206007 </i>
    <i name="hartreedc">   -531.76302460 </i>
    <i name="XCdc">   -120.86788038 </i>
    <i name="pawpsdc">   3246.12869203 </i>
    <i name="pawaedc">  -2972.40719683 </i>
    <i name="eentropy">     -0.00027715 </i>
    <i name="bandstr">     38.77412576 </i>
    <i name="atom">   3861.61514281 </i>
    <i name="e_fr_energy">    469.80428721 </i>
    <i name="e_wo_entrp">    469.80456435 </i>
    <i name="e_0_energy">    469.80442578 </i>
   </energy>
  </scstep>
  <scstep>
   <time name="dav">    1.41    1.41</time>
   <time name="total">    1.41    1.41</time>
   <energy>
    <i name="e_fr_energy">     16.30585711 </i>
    <i name="e_wo_entrp">     16.30585711 </i>
    <i name="e_0_energy">     16.30585711 </i>
   </energy>
  </scstep>
  <scstep>
   <time name="dav">    1.28    1.28</time>
   <time name="total">    1.28    1.28</time>
   <energy>
    <i name="e_fr_energy">    -27.12362572 </i>
    <i name="e_wo_entrp">    -27.12362572 </i>
    <i name="e_0_energy">    -27.12362572 </i>
   </energy>
  </scstep>
  <scstep>
   <time name="dav">    1.27    1.27</time>
   <time name="total">    1.27    1.27</time>
   <energy>
    <i name="e_fr_energy">    -27.79869244 </i>
    <i name="e_wo_entrp">    -27.79869244 </i>
    <i name="e_0_energy">    -27.79869244 </i>
   </energy>
  </scstep>
  <scstep>
   <time name="dav">    1.23    1.23</time>
   <time name="total">    1.31    1.31</time>
   <energy>
    <i name="e_fr_energy">    -27.81204325 </i>
    <i name="e_wo_entrp">    -27.81204325 </i>
    <i name="e_0_energy">    -27.81204325 </i>
   </energy>
  </scstep>
  <scstep>
   <time name="dav">    1.24    1.24</time>
   <time name="total">    1.34    1.34</time>
   <energy>
    <i name="e_fr_energy">    -26.29994212 </i>
    <i name="e_wo_entrp">    -26.29994212 </i>
    <i name="e_0_energy">    -26.29994212 </i>
   </energy>
  </scstep>
  <scstep>
   <time name="dav">    1.40    1.40</time>
   <time name="total">    1.50    1.50</time>
   <energy>
    <i name="e_fr_energy">    -26.14211154 </i>
    <i name="e_wo_entrp">    -26.14211154 </i>
    <i name="e_0_energy">    -26.14211154 </i>
   </energy>
  </scstep>
  <scstep>
   <time name="dav">    1.24    1.24</time>
   <time name="total">    1.34    1.34</time>
   <energy>
    <i name="e_fr_energy">    -26.13677338 </i>
    <i name="e_wo_entrp">    -26.13677338 </i>
    <i name="e_0_energy">    -26.13677338 </i>
   </energy>
  </scstep>
  <scstep>
   <time name="dav">    1.34    1.34</time>
   <time name="total">    1.43    1.44</time>
   <energy>
    <i name="e_fr_energy">    -26.13068249 </i>
    <i name="e_wo_entrp">    -26.13068249 </i>
    <i name="e_0_energy">    -26.13068249 </i>
   </energy>
  </scstep>
  <scstep>
   <time name="dav">    1.23    1.23</time>
   <time name="total">    1.32    1.32</time>
   <energy>
    <i name="e_fr_energy">    -26.13206506 </i>
    <i name="e_wo_entrp">    -26.13206506 </i>
    <i name="e_0_energy">    -26.13206506 </i>
   </energy>
  </scstep>
  <scstep>
   <time name="dav">    1.26    1.26</time>
   <time name="total">    1.35    1.36</time>
   <energy>
    <i name="e_fr_energy">    -26.13218128 </i>
    <i name="e_wo_entrp">    -26.13218128 </i>
    <i name="e_0_energy">    -26.13218128 </i>
   </energy>
  </scstep>
  <scstep>
   <time name="dav">    1.27    1.27</time>
   <time name="total">    1.36    1.36</time>
   <energy>
    <i name="e_fr_energy">    -26.13219821 </i>
    <i name="e_wo_entrp">    -26.13219821 </i>
    <i name="e_0_energy">    -26.13219821 </i>
   </energy>
  </scstep>
  <scstep>
   <time name="dav">    1.27    1.27</time>
   <time name="total">    1.36    1.37</time>
   <energy>
    <i name="e_fr_energy">    -26.13219325 </i>
    <i name="e_wo_entrp">    -26.13219325 </i>
    <i name="e_0_energy">    -26.13219325 </i>
   </energy>
  </scstep>
  <scstep>
   <time name="dav">    1.29    1.29</time>
   <time name="total">    1.39    1.39</time>
   <energy>
    <i name="e_fr_energy">    -26.13219253 </i>
    <i name="e_wo_entrp">    -26.13219253 </i>
    <i name="e_0_energy">    -26.13219253 </i>
   </energy>
  </scstep>
  <scstep>
   <time name="dav">    1.34    1.34</time>
   <time name="total">    1.43    1.43</time>
   <energy>
    <i name="e_fr_energy">    -26.13219265 </i>
    <i name="e_wo_entrp">    -26.13219265 </i>
    <i name="e_0_energy">    -26.13219265 </i>
   </energy>
  </scstep>
  <scstep>
   <time name="dav">    1.12    1.12</time>
   <time name="total">    1.21    1.22</time>
   <energy>
    <i name="e_fr_energy">    -26.13219259 </i>
    <i name="e_wo_entrp">    -26.13219259 </i>
    <i name="e_0_energy">    -26.13219259 </i>
   </energy>
  </scstep>
  <scstep>
   <time name="dav">    0.99    0.99</time>
   <time name="total">    1.02    1.02</time>
   <energy>
    <i name="alphaZ">    214.16676563 </i>
    <i name="ewald">  -3265.84206007 </i>
    <i name="hartreedc">   -554.76017347 </i>
    <i name="XCdc">   -118.49242464 </i>
    <i name="pawpsdc">   3633.66764380 </i>
    <i name="pawaedc">  -3361.16455812 </i>
    <i name="eentropy">     -0.00000000 </i>
    <i name="bandstr">   -435.32252854 </i>
    <i name="atom">   3861.61514281 </i>
    <i name="e_fr_energy">    -26.13219260 </i>
    <i name="e_wo_entrp">    -26.13219260 </i>
    <i name="e_0_energy">    -26.13219260 </i>
   </energy>
  </scstep>
  <structure>
   <crystal>
    <varray name="basis" >
     <v>      16.57479336       0.00000000       0.00000000 </v>
     <v>       0.00000000       4.14369834       0.00000000 </v>
     <v>       0.00000000       0.00000000       4.14369834 </v>
    </varray>
    <i name="volume">    284.59311253 </i>
    <varray name="rec_basis" >
     <v>       0.06033258      -0.00000000       0.00000000 </v>
     <v>       0.00000000       0.24133031       0.00000000 </v>
     <v>      -0.00000000      -0.00000000       0.24133031 </v>
    </varray>
   </crystal>
   <varray name="positions" >
    <v>       0.00058531       0.00058531       0.00000000 </v>
    <v>       0.25000000       0.00000000       0.00000000 </v>
    <v>       0.50000000       0.00000000       0.00000000 </v>
    <v>       0.75000000       0.00000000       0.00000000 </v>
    <v>       0.12500000       0.50000000       0.50000000 </v>
    <v>       0.37500000       0.50000000       0.50000000 </v>
    <v>       0.62500000       0.50000000       0.50000000 </v>
    <v>       0.87500000       0.50000000       0.50000000 </v>
   </varray>
  </structure>
  <varray name="forces" >
   <v>      -0.02364065      -0.00168817      -0.00000000 </v>
   <v>       0.00607351      -0.00010483       0.00000000 </v>
   <v>       0.00390455      -0.00000429       0.00000000 </v>
   <v>       0.00603040      -0.00010039       0.00000000 </v>
   <v>       0.00763891       0.00098435       0.00000000 </v>
   <v>      -0.00376403      -0.00000077      -0.00000000 </v>
   <v>      -0.00376541      -0.00000156      -0.00000000 </v>
   <v>       0.00752272       0.00091565       0.00000000 </v>
  </varray>
  <varray name="stress" >
   <v>       7.41218990       0.00061307       0.00000000 </v>
   <v>       0.00061311       7.40308002       0.00000000 </v>
   <v>       0.00000000       0.00000000       7.40307147 </v>
  </varray>
  <energy>
   <i name="e_fr_energy">    -26.13219260 </i>
   <i name="e_wo_entrp">    -26.13219260 </i>
   <i name="e_0_energy">    -26.13219260 </i>
  </energy>
  <time name="totalsc">   23.80   23.83</time>
  <eigenvalues>
   <array>
    <dimension dim="1">band</dimension>
    <dimension dim="2">kpoint</dimension>
    <dimension dim="3">spin</dimension>
    <field>eigene</field>
    <field>occ</field>
    <set>
     <set comment="spin 1">
      <set comment="kpoint 1">
       <r>  -19.7985    1.0000 </r>
       <r>  -19.7585    1.0000 </r>
       <r>  -19.7575    1.0000 </r>
       <r>  -19.7175    1.0000 </r>
       <r>  -12.5986    1.0000 </r>
       <r>  -12.5769    1.0000 </r>
       <r>  -12.5657    1.0000 </r>
       <r>  -12.5463    1.0000 </r>
       <r>   -6.8092    1.0000 </r>
       <r>   -6.5726    1.0000 </r>
       <r>   -6.5662    1.0000 </r>
       <r>   -6.2949    1.0000 </r>
       <r>   -6.2949    1.0000 </r>
       <r>   -6.2934    1.0000 </r>
       <r>   -6.2286    1.0000 </r>
       <r>   -6.2286    1.0000 </r>
       <r>   -6.2272    1.0000 </r>
       <r>   -6.2272    1.0000 </r>
       <r>   -6.1587    1.0000 </r>
       <r>   -6.1587    1.0000 </r>
       <r>   -1.5320    1.0000 </r>
       <r>   -1.0313    1.0000 </r>
       <r>   -1.0220    1.0000 </r>
       <r>   -0.6197    1.0000 </r>
       <r>   -0.6197    1.0000 </r>
       <r>   -0.5092    1.0000 </r>
       <r>   -0.5092    1.0000 </r>
       <r>   -0.4984    1.0000 </r>
       <r>   -0.4984    1.0000 </r>
       <r>   -0.3950    1.0000 </r>
       <r>   -0.3939    1.0000 </r>
       <r>   -0.3939    1.0000 </r>
       <r>    4.7978    0.0000 </r>
       <r>    5.0128    0.0000 </r>
       <r>    5.0131    0.0000 </r>
       <r>    5.4032    0.0000 </r>
       <r>    5.4106    0.0000 </r>
       <r>    5.9520    0.0000 </r>
       <r>    5.9557    0.0000 </r>
       <r>    6.0111    0.0000 </r>
      </set>
      <set comment="kpoint 2">
       <r>  -19.7946    1.0000 </r>
       <r>  -19.7754    1.0000 </r>
       <r>  -19.7402    1.0000 </r>
       <r>  -19.7217    1.0000 </r>
       <r>  -12.5972    1.0000 </r>
       <r>  -12.5807    1.0000 </r>
       <r>  -12.5627    1.0000 </r>
       <r>  -12.5469    1.0000 </r>
       <r>   -6.7795    1.0000 </r>
       <r>   -6.6925    1.0000 </r>
       <r>   -6.4367    1.0000 </r>
       <r>   -6.3327    1.0000 </r>
       <r>   -6.2871    1.0000 </r>
       <r>   -6.2871    1.0000 </r>
       <r>   -6.2598    1.0000 </r>
       <r>   -6.2598    1.0000 </r>
       <r>   -6.1950    1.0000 </r>
       <r>   -6.1950    1.0000 </r>
       <r>   -6.1674    1.0000 </r>
       <r>   -6.1674    1.0000 </r>
       <r>   -1.4694    1.0000 </r>
       <r>   -1.2902    1.0000 </r>
       <r>   -0.7327    1.0000 </r>
       <r>   -0.6048    1.0000 </r>
       <r>   -0.6048    1.0000 </r>
       <r>   -0.5595    1.0000 </r>
       <r>   -0.5595    1.0000 </r>
       <r>   -0.4907    1.0000 </r>
       <r>   -0.4496    1.0000 </r>
       <r>   -0.4496    1.0000 </r>
       <r>   -0.4072    1.0000 </r>
       <r>   -0.4072    1.0000 </r>
       <r>    4.9652    0.0000 </r>
       <r>    5.0588    0.0000 </r>
       <r>    5.1779    0.0000 </r>
       <r>    5.1951    0.0000 </r>
       <r>    5.3976    0.0000 </r>
       <r>    5.6652    0.0000 </r>
       <r>    5.6658    0.0000 </r>
       <r>    5.9058    0.0000 </r>
      </set>
      <set comment="kpoint 3">
       <r>  -19.7912    1.0000 </r>
       <r>  -19.7518    1.0000 </r>
       <r>  -19.7508    1.0000 </r>
       <r>  -19.7112    1.0000 </r>
       <r>  -12.5892    1.0000 </r>
       <r>  -12.5732    1.0000 </r>
       <r>  -12.5617    1.0000 </r>
       <r>  -12.5471    1.0000 </r>
       <r>   -6.8295    1.0000 </r>
       <r>   -6.5872    1.0000 </r>
       <r>   -6.5807    1.0000 </r>
       <r>   -6.3509    1.0000 </r>
       <r>   -6.2932    1.0000 </r>
       <r>   -6.2920    1.0000 </r>
       <r>   -6.2826    1.0000 </r>
       <r>   -6.2809    1.0000 </r>
       <r>   -6.2549    1.0000 </r>
       <r>   -6.2184    1.0000 </r>
       <r>   -6.2170    1.0000 </r>
       <r>   -6.1508    1.0000 </r>
       <r>   -1.4532    1.0000 </r>
       <r>   -1.0305    1.0000 </r>
       <r>   -1.0232    1.0000 </r>
       <r>   -0.6457    1.0000 </r>
       <r>   -0.6040    1.0000 </r>
       <r>   -0.5472    1.0000 </r>
       <r>   -0.5371    1.0000 </r>
       <r>   -0.5223    1.0000 </r>
       <r>   -0.5113    1.0000 </r>
       <r>   -0.5003    1.0000 </r>
       <r>   -0.4152    1.0000 </r>
       <r>   -0.4138    1.0000 </r>
       <r>    5.0350    0.0000 </r>
       <r>    5.0795    0.0000 </r>
       <r>    5.2498    0.0000 </r>
       <r>    5.5562    0.0000 </r>
       <r>    5.5631    0.0000 </r>
       <r>    6.0496    0.0000 </r>
       <r>    6.0524    0.0000 </r>
       <r>    6.1099    0.0000 </r>
      </set>
      <set comment="kpoint 4">
       <r>  -19.7912    1.0000 </r>
       <r>  -19.7518    1.0000 </r>
       <r>  -19.7508    1.0000 </r>
       <r>  -19.7112    1.0000 </r>
       <r>  -12.5892    1.0000 </r>
       <r>  -12.5732    1.0000 </r>
       <r>  -12.5617    1.0000 </r>
       <r>  -12.5471    1.0000 </r>
       <r>   -6.8295    1.0000 </r>
       <r>   -6.5872    1.0000 </r>
       <r>   -6.5807    1.0000 </r>
       <r>   -6.3509    1.0000 </r>
       <r>   -6.2932    1.0000 </r>
       <r>   -6.2920    1.0000 </r>
       <r>   -6.2826    1.0000 </r>
       <r>   -6.2809    1.0000 </r>
       <r>   -6.2549    1.0000 </r>
       <r>   -6.2184    1.0000 </r>
       <r>   -6.2170    1.0000 </r>
       <r>   -6.1508    1.0000 </r>
       <r>   -1.4532    1.0000 </r>
       <r>   -1.0305    1.0000 </r>
       <r>   -1.0232    1.0000 </r>
       <r>   -0.6457    1.0000 </r>
       <r>   -0.6040    1.0000 </r>
       <r>   -0.5472    1.0000 </r>
       <r>   -0.5371    1.0000 </r>
       <r>   -0.5223    1.0000 </r>
       <r>   -0.5113    1.0000 </r>
       <r>   -0.5003    1.0000 </r>
       <r>   -0.4152    1.0000 </r>
       <r>   -0.4138    1.0000 </r>
       <r>    5.0350    0.0000 </r>
       <r>    5.0795    0.0000 </r>
       <r>    5.2498    0.0000 </r>
       <r>    5.5562    0.0000 </r>
       <r>    5.5631    0.0000 </r>
       <r>    6.0496    0.0000 </r>
       <r>    6.0524    0.0000 </r>
       <r>    6.1099    0.0000 </r>
      </set>
      <set comment="kpoint 5">
       <r>  -19.7875    1.0000 </r>
       <r>  -19.7684    1.0000 </r>
       <r>  -19.7338    1.0000 </r>
       <r>  -19.7154    1.0000 </r>
       <r>  -12.5887    1.0000 </r>
       <r>  -12.5744    1.0000 </r>
       <r>  -12.5610    1.0000 </r>
       <r>  -12.5471    1.0000 </r>
       <r>   -6.7990    1.0000 </r>
       <r>   -6.7099    1.0000 </r>
       <r>   -6.4503    1.0000 </r>
       <r>   -6.3627    1.0000 </r>
       <r>   -6.3096    1.0000 </r>
       <r>   -6.3036    1.0000 </r>
       <r>   -6.2758    1.0000 </r>
       <r>   -6.2751    1.0000 </r>
       <r>   -6.2586    1.0000 </r>
       <r>   -6.2485    1.0000 </r>
       <r>   -6.1860    1.0000 </r>
       <r>   -6.1592    1.0000 </r>
       <r>   -1.4005    1.0000 </r>
       <r>   -1.2492    1.0000 </r>
       <r>   -0.7821    1.0000 </r>
       <r>   -0.6319    1.0000 </r>
       <r>   -0.5964    1.0000 </r>
       <r>   -0.5916    1.0000 </r>
       <r>   -0.5852    1.0000 </r>
       <r>   -0.5524    1.0000 </r>
       <r>   -0.4874    1.0000 </r>
       <r>   -0.4609    1.0000 </r>
       <r>   -0.4432    1.0000 </r>
       <r>   -0.4246    1.0000 </r>
       <r>    5.1623    0.0000 </r>
       <r>    5.2125    0.0000 </r>
       <r>    5.3404    0.0000 </r>
       <r>    5.3520    0.0000 </r>
       <r>    5.5719    0.0000 </r>
       <r>    5.7772    0.0000 </r>
       <r>    5.8006    0.0000 </r>
       <r>    6.0172    0.0000 </r>
      </set>
      <set comment="kpoint 6">
       <r>  -19.7875    1.0000 </r>
       <r>  -19.7684    1.0000 </r>
       <r>  -19.7338    1.0000 </r>
       <r>  -19.7154    1.0000 </r>
       <r>  -12.5887    1.0000 </r>
       <r>  -12.5744    1.0000 </r>
       <r>  -12.5610    1.0000 </r>
       <r>  -12.5471    1.0000 </r>
       <r>   -6.7990    1.0000 </r>
       <r>   -6.7099    1.0000 </r>
       <r>   -6.4503    1.0000 </r>
       <r>   -6.3627    1.0000 </r>
       <r>   -6.3095    1.0000 </r>
       <r>   -6.3037    1.0000 </r>
       <r>   -6.2758    1.0000 </r>
       <r>   -6.2751    1.0000 </r>
       <r>   -6.2586    1.0000 </r>
       <r>   -6.2485    1.0000 </r>
       <r>   -6.1860    1.0000 </r>
       <r>   -6.1592    1.0000 </r>
       <r>   -1.4005    1.0000 </r>
       <r>   -1.2492    1.0000 </r>
       <r>   -0.7821    1.0000 </r>
       <r>   -0.6319    1.0000 </r>
       <r>   -0.5964    1.0000 </r>
       <r>   -0.5916    1.0000 </r>
       <r>   -0.5852    1.0000 </r>
       <r>   -0.5524    1.0000 </r>
       <r>   -0.4874    1.0000 </r>
       <r>   -0.4609    1.0000 </r>
       <r>   -0.4432    1.0000 </r>
       <r>   -0.4246    1.0000 </r>
       <r>    5.1623    0.0000 </r>
       <r>    5.2125    0.0000 </r>
       <r>    5.3404    0.0000 </r>
       <r>    5.3520    0.0000 </r>
       <r>    5.5719    0.0000 </r>
       <r>    5.7772    0.0000 </r>
       <r>    5.8006    0.0000 </r>
       <r>    6.0172    0.0000 </r>
      </set>
      <set comment="kpoint 7">
       <r>  -19.7875    1.0000 </r>
       <r>  -19.7684    1.0000 </r>
       <r>  -19.7338    1.0000 </r>
       <r>  -19.7154    1.0000 </r>
       <r>  -12.5887    1.0000 </r>
       <r>  -12.5744    1.0000 </r>
       <r>  -12.5610    1.0000 </r>
       <r>  -12.5471    1.0000 </r>
       <r>   -6.7990    1.0000 </r>
       <r>   -6.7099    1.0000 </r>
       <r>   -6.4503    1.0000 </r>
       <r>   -6.3627    1.0000 </r>
       <r>   -6.3095    1.0000 </r>
       <r>   -6.3037    1.0000 </r>
       <r>   -6.2758    1.0000 </r>
       <r>   -6.2751    1.0000 </r>
       <r>   -6.2586    1.0000 </r>
       <r>   -6.2485    1.0000 </r>
       <r>   -6.1860    1.0000 </r>
       <r>   -6.1592    1.0000 </r>
       <r>   -1.4005    1.0000 </r>
       <r>   -1.2492    1.0000 </r>
       <r>   -0.7821    1.0000 </r>
       <r>   -0.6319    1.0000 </r>
       <r>   -0.5964    1.0000 </r>
       <r>   -0.5916    1.0000 </r>
       <r>   -0.5853    1.0000 </r>
       <r>   -0.5524    1.0000 </r>
       <r>   -0.4874    1.0000 </r>
       <r>   -0.4609    1.0000 </r>
       <r>   -0.4432    1.0000 </r>
       <r>   -0.4246    1.0000 </r>
       <r>    5.1623    0.0000 </r>
       <r>    5.2125    0.0000 </r>
       <r>    5.3404    0.0000 </r>
       <r>    5.3520    0.0000 </r>
       <r>    5.5719    0.0000 </r>
       <r>    5.7772    0.0000 </r>
       <r>    5.8006    0.0000 </r>
       <r>    6.0172    0.0000 </r>
      </set>
      <set comment="kpoint 8">
       <r>  -19.7723    1.0000 </r>
       <r>  -19.7341    1.0000 </r>
       <r>  -19.7331    1.0000 </r>
       <r>  -19.6949    1.0000 </r>
       <r>  -12.5757    1.0000 </r>
       <r>  -12.5631    1.0000 </r>
       <r>  -12.5512    1.0000 </r>
       <r>  -12.5390    1.0000 </r>
       <r>   -6.8838    1.0000 </r>
       <r>   -6.6388    1.0000 </r>
       <r>   -6.6330    1.0000 </r>
       <r>   -6.4953    1.0000 </r>
       <r>   -6.4894    1.0000 </r>
       <r>   -6.4389    1.0000 </r>
       <r>   -6.4363    1.0000 </r>
       <r>   -6.2500    1.0000 </r>
       <r>   -6.2484    1.0000 </r>
       <r>   -6.1914    1.0000 </r>
       <r>   -6.1901    1.0000 </r>
       <r>   -6.1300    1.0000 </r>
       <r>   -1.2612    1.0000 </r>
       <r>   -1.0468    1.0000 </r>
       <r>   -1.0452    1.0000 </r>
       <r>   -0.8495    1.0000 </r>
       <r>   -0.7055    1.0000 </r>
       <r>   -0.6120    1.0000 </r>
       <r>   -0.6086    1.0000 </r>
       <r>   -0.5632    1.0000 </r>
       <r>   -0.5176    1.0000 </r>
       <r>   -0.5061    1.0000 </r>
       <r>   -0.4692    1.0000 </r>
       <r>   -0.4661    1.0000 </r>
       <r>    5.2714    0.0000 </r>
       <r>    5.6119    0.0000 </r>
       <r>    5.7881    0.0000 </r>
       <r>    5.7918    0.0000 </r>
       <r>    5.9423    0.0000 </r>
       <r>    6.1141    0.0000 </r>
       <r>    6.3545    0.0000 </r>
       <r>    6.3570    0.0000 </r>
      </set>
      <set comment="kpoint 9">
       <r>  -19.7723    1.0000 </r>
       <r>  -19.7341    1.0000 </r>
       <r>  -19.7331    1.0000 </r>
       <r>  -19.6949    1.0000 </r>
       <r>  -12.5757    1.0000 </r>
       <r>  -12.5631    1.0000 </r>
       <r>  -12.5512    1.0000 </r>
       <r>  -12.5390    1.0000 </r>
       <r>   -6.8838    1.0000 </r>
       <r>   -6.6388    1.0000 </r>
       <r>   -6.6330    1.0000 </r>
       <r>   -6.4953    1.0000 </r>
       <r>   -6.4894    1.0000 </r>
       <r>   -6.4389    1.0000 </r>
       <r>   -6.4363    1.0000 </r>
       <r>   -6.2500    1.0000 </r>
       <r>   -6.2484    1.0000 </r>
       <r>   -6.1914    1.0000 </r>
       <r>   -6.1901    1.0000 </r>
       <r>   -6.1300    1.0000 </r>
       <r>   -1.2612    1.0000 </r>
       <r>   -1.0468    1.0000 </r>
       <r>   -1.0452    1.0000 </r>
       <r>   -0.8495    1.0000 </r>
       <r>   -0.7055    1.0000 </r>
       <r>   -0.6120    1.0000 </r>
       <r>   -0.6086    1.0000 </r>
       <r>   -0.5632    1.0000 </r>
       <r>   -0.5176    1.0000 </r>
       <r>   -0.5061    1.0000 </r>
       <r>   -0.4692    1.0000 </r>
       <r>   -0.4661    1.0000 </r>
       <r>    5.2714    0.0000 </r>
       <r>    5.6119    0.0000 </r>
       <r>    5.7881    0.0000 </r>
       <r>    5.7918    0.0000 </r>
       <r>    5.9423    0.0000 </r>
       <r>    6.1141    0.0000 </r>
       <r>    6.3545    0.0000 </r>
       <r>    6.3570    0.0000 </r>
      </set>
      <set comment="kpoint 10">
       <r>  -19.7687    1.0000 </r>
       <r>  -19.7500    1.0000 </r>
       <r>  -19.7168    1.0000 </r>
       <r>  -19.6988    1.0000 </r>
       <r>  -12.5756    1.0000 </r>
       <r>  -12.5633    1.0000 </r>
       <r>  -12.5512    1.0000 </r>
       <r>  -12.5390    1.0000 </r>
       <r>   -6.8515    1.0000 </r>
       <r>   -6.7589    1.0000 </r>
       <r>   -6.5377    1.0000 </r>
       <r>   -6.4980    1.0000 </r>
       <r>   -6.4892    1.0000 </r>
       <r>   -6.4677    1.0000 </r>
       <r>   -6.3740    1.0000 </r>
       <r>   -6.2871    1.0000 </r>
       <r>   -6.2434    1.0000 </r>
       <r>   -6.2185    1.0000 </r>
       <r>   -6.1622    1.0000 </r>
       <r>   -6.1374    1.0000 </r>
       <r>   -1.2347    1.0000 </r>
       <r>   -1.1569    1.0000 </r>
       <r>   -0.9370    1.0000 </r>
       <r>   -0.8689    1.0000 </r>
       <r>   -0.6928    1.0000 </r>
       <r>   -0.6558    1.0000 </r>
       <r>   -0.5579    1.0000 </r>
       <r>   -0.5555    1.0000 </r>
       <r>   -0.5338    1.0000 </r>
       <r>   -0.4967    1.0000 </r>
       <r>   -0.4917    1.0000 </r>
       <r>   -0.4697    1.0000 </r>
       <r>    5.3859    0.0000 </r>
       <r>    5.6040    0.0000 </r>
       <r>    5.7087    0.0000 </r>
       <r>    5.9491    0.0000 </r>
       <r>    6.0128    0.0000 </r>
       <r>    6.0264    0.0000 </r>
       <r>    6.0684    0.0000 </r>
       <r>    6.2572    0.0000 </r>
      </set>
      <set comment="kpoint 11">
       <r>  -19.7687    1.0000 </r>
       <r>  -19.7500    1.0000 </r>
       <r>  -19.7168    1.0000 </r>
       <r>  -19.6988    1.0000 </r>
       <r>  -12.5756    1.0000 </r>
       <r>  -12.5633    1.0000 </r>
       <r>  -12.5512    1.0000 </r>
       <r>  -12.5390    1.0000 </r>
       <r>   -6.8515    1.0000 </r>
       <r>   -6.7589    1.0000 </r>
       <r>   -6.5376    1.0000 </r>
       <r>   -6.4981    1.0000 </r>
       <r>   -6.4892    1.0000 </r>
       <r>   -6.4677    1.0000 </r>
       <r>   -6.3740    1.0000 </r>
       <r>   -6.2871    1.0000 </r>
       <r>   -6.2434    1.0000 </r>
       <r>   -6.2185    1.0000 </r>
       <r>   -6.1622    1.0000 </r>
       <r>   -6.1374    1.0000 </r>
       <r>   -1.2347    1.0000 </r>
       <r>   -1.1569    1.0000 </r>
       <r>   -0.9370    1.0000 </r>
       <r>   -0.8689    1.0000 </r>
       <r>   -0.6928    1.0000 </r>
       <r>   -0.6558    1.0000 </r>
       <r>   -0.5579    1.0000 </r>
       <r>   -0.5555    1.0000 </r>
       <r>   -0.5338    1.0000 </r>
       <r>   -0.4967    1.0000 </r>
       <r>   -0.4917    1.0000 </r>
       <r>   -0.4697    1.0000 </r>
       <r>    5.3859    0.0000 </r>
       <r>    5.6040    0.0000 </r>
       <r>    5.7087    0.0000 </r>
       <r>    5.9491    0.0000 </r>
       <r>    6.0129    0.0000 </r>
       <r>    6.0263    0.0000 </r>
       <r>    6.0684    0.0000 </r>
       <r>    6.2572    0.0000 </r>
      </set>
      <set comment="kpoint 12">
       <r>  -19.7687    1.0000 </r>
       <r>  -19.7500    1.0000 </r>
       <r>  -19.7168    1.0000 </r>
       <r>  -19.6988    1.0000 </r>
       <r>  -12.5756    1.0000 </r>
       <r>  -12.5633    1.0000 </r>
       <r>  -12.5512    1.0000 </r>
       <r>  -12.5390    1.0000 </r>
       <r>   -6.8515    1.0000 </r>
       <r>   -6.7589    1.0000 </r>
       <r>   -6.5376    1.0000 </r>
       <r>   -6.4981    1.0000 </r>
       <r>   -6.4892    1.0000 </r>
       <r>   -6.4677    1.0000 </r>
       <r>   -6.3740    1.0000 </r>
       <r>   -6.2871    1.0000 </r>
       <r>   -6.2434    1.0000 </r>
       <r>   -6.2185    1.0000 </r>
       <r>   -6.1622    1.0000 </r>
       <r>   -6.1374    1.0000 </r>
       <r>   -1.2347    1.0000 </r>
       <r>   -1.1569    1.0000 </r>
       <r>   -0.9370    1.0000 </r>
       <r>   -0.8689    1.0000 </r>
       <r>   -0.6928    1.0000 </r>
       <r>   -0.6558    1.0000 </r>
       <r>   -0.5579    1.0000 </r>
       <r>   -0.5555    1.0000 </r>
       <r>   -0.5338    1.0000 </r>
       <r>   -0.4967    1.0000 </r>
       <r>   -0.4917    1.0000 </r>
       <r>   -0.4697    1.0000 </r>
       <r>    5.3859    0.0000 </r>
       <r>    5.6040    0.0000 </r>
       <r>    5.7087    0.0000 </r>
       <r>    5.9491    0.0000 </r>
       <r>    6.0129    0.0000 </r>
       <r>    6.0263    0.0000 </r>
       <r>    6.0684    0.0000 </r>
       <r>    6.2572    0.0000 </r>
      </set>
      <set comment="kpoint 13">
       <r>  -19.7486    1.0000 </r>
       <r>  -19.7119    1.0000 </r>
       <r>  -19.7110    1.0000 </r>
       <r>  -19.6744    1.0000 </r>
       <r>  -12.5815    1.0000 </r>
       <r>  -12.5501    1.0000 </r>
       <r>  -12.5389    1.0000 </r>
       <r>  -12.5080    1.0000 </r>
       <r>   -6.9531    1.0000 </r>
       <r>   -6.7648    1.0000 </r>
       <r>   -6.7488    1.0000 </r>
       <r>   -6.7454    1.0000 </r>
       <r>   -6.6466    1.0000 </r>
       <r>   -6.5590    1.0000 </r>
       <r>   -6.5541    1.0000 </r>
       <r>   -6.2089    1.0000 </r>
       <r>   -6.2071    1.0000 </r>
       <r>   -6.1574    1.0000 </r>
       <r>   -6.1563    1.0000 </r>
       <r>   -6.1040    1.0000 </r>
       <r>   -1.1936    1.0000 </r>
       <r>   -1.0953    1.0000 </r>
       <r>   -1.0908    1.0000 </r>
       <r>   -1.0436    1.0000 </r>
       <r>   -0.7664    1.0000 </r>
       <r>   -0.6752    1.0000 </r>
       <r>   -0.6727    1.0000 </r>
       <r>   -0.5462    1.0000 </r>
       <r>   -0.5380    1.0000 </r>
       <r>   -0.5272    1.0000 </r>
       <r>   -0.5152    1.0000 </r>
       <r>   -0.4977    1.0000 </r>
       <r>    5.5595    0.0000 </r>
       <r>    5.8724    0.0000 </r>
       <r>    5.9048    0.0000 </r>
       <r>    5.9069    0.0000 </r>
       <r>    6.2070    0.0000 </r>
       <r>    6.2989    0.0000 </r>
       <r>    6.5189    0.0000 </r>
       <r>    6.5247    0.0000 </r>
      </set>
      <set comment="kpoint 14">
       <r>  -19.7486    1.0000 </r>
       <r>  -19.7119    1.0000 </r>
       <r>  -19.7110    1.0000 </r>
       <r>  -19.6744    1.0000 </r>
       <r>  -12.5815    1.0000 </r>
       <r>  -12.5501    1.0000 </r>
       <r>  -12.5389    1.0000 </r>
       <r>  -12.5080    1.0000 </r>
       <r>   -6.9531    1.0000 </r>
       <r>   -6.7648    1.0000 </r>
       <r>   -6.7488    1.0000 </r>
       <r>   -6.7454    1.0000 </r>
       <r>   -6.6466    1.0000 </r>
       <r>   -6.5590    1.0000 </r>
       <r>   -6.5541    1.0000 </r>
       <r>   -6.2089    1.0000 </r>
       <r>   -6.2071    1.0000 </r>
       <r>   -6.1574    1.0000 </r>
       <r>   -6.1563    1.0000 </r>
       <r>   -6.1040    1.0000 </r>
       <r>   -1.1936    1.0000 </r>
       <r>   -1.0953    1.0000 </r>
       <r>   -1.0908    1.0000 </r>
       <r>   -1.0436    1.0000 </r>
       <r>   -0.7664    1.0000 </r>
       <r>   -0.6752    1.0000 </r>
       <r>   -0.6727    1.0000 </r>
       <r>   -0.5462    1.0000 </r>
       <r>   -0.5380    1.0000 </r>
       <r>   -0.5272    1.0000 </r>
       <r>   -0.5152    1.0000 </r>
       <r>   -0.4977    1.0000 </r>
       <r>    5.5595    0.0000 </r>
       <r>    5.8724    0.0000 </r>
       <r>    5.9048    0.0000 </r>
       <r>    5.9069    0.0000 </r>
       <r>    6.2070    0.0000 </r>
       <r>    6.2989    0.0000 </r>
       <r>    6.5189    0.0000 </r>
       <r>    6.5247    0.0000 </r>
      </set>
      <set comment="kpoint 15">
       <r>  -19.7453    1.0000 </r>
       <r>  -19.7270    1.0000 </r>
       <r>  -19.6956    1.0000 </r>
       <r>  -19.6781    1.0000 </r>
       <r>  -12.5789    1.0000 </r>
       <r>  -12.5593    1.0000 </r>
       <r>  -12.5299    1.0000 </r>
       <r>  -12.5105    1.0000 </r>
       <r>   -6.9193    1.0000 </r>
       <r>   -6.8333    1.0000 </r>
       <r>   -6.7431    1.0000 </r>
       <r>   -6.6924    1.0000 </r>
       <r>   -6.6810    1.0000 </r>
       <r>   -6.6564    1.0000 </r>
       <r>   -6.3943    1.0000 </r>
       <r>   -6.2593    1.0000 </r>
       <r>   -6.2033    1.0000 </r>
       <r>   -6.1807    1.0000 </r>
       <r>   -6.1324    1.0000 </r>
       <r>   -6.1102    1.0000 </r>
       <r>   -1.1757    1.0000 </r>
       <r>   -1.1319    1.0000 </r>
       <r>   -1.0676    1.0000 </r>
       <r>   -1.0501    1.0000 </r>
       <r>   -0.7538    1.0000 </r>
       <r>   -0.7204    1.0000 </r>
       <r>   -0.6157    1.0000 </r>
       <r>   -0.5602    1.0000 </r>
       <r>   -0.5454    1.0000 </r>
       <r>   -0.5293    1.0000 </r>
       <r>   -0.5136    1.0000 </r>
       <r>   -0.4979    1.0000 </r>
       <r>    5.6634    0.0000 </r>
       <r>    5.8477    0.0000 </r>
       <r>    5.8663    0.0000 </r>
       <r>    5.8815    0.0000 </r>
       <r>    6.2759    0.0000 </r>
       <r>    6.3366    0.0000 </r>
       <r>    6.4149    0.0000 </r>
       <r>    6.4684    0.0000 </r>
      </set>
      <set comment="kpoint 16">
       <r>  -19.7453    1.0000 </r>
       <r>  -19.7270    1.0000 </r>
       <r>  -19.6956    1.0000 </r>
       <r>  -19.6781    1.0000 </r>
       <r>  -12.5789    1.0000 </r>
       <r>  -12.5593    1.0000 </r>
       <r>  -12.5299    1.0000 </r>
       <r>  -12.5105    1.0000 </r>
       <r>   -6.9193    1.0000 </r>
       <r>   -6.8332    1.0000 </r>
       <r>   -6.7431    1.0000 </r>
       <r>   -6.6924    1.0000 </r>
       <r>   -6.6810    1.0000 </r>
       <r>   -6.6564    1.0000 </r>
       <r>   -6.3943    1.0000 </r>
       <r>   -6.2593    1.0000 </r>
       <r>   -6.2033    1.0000 </r>
       <r>   -6.1807    1.0000 </r>
       <r>   -6.1324    1.0000 </r>
       <r>   -6.1102    1.0000 </r>
       <r>   -1.1757    1.0000 </r>
       <r>   -1.1319    1.0000 </r>
       <r>   -1.0676    1.0000 </r>
       <r>   -1.0501    1.0000 </r>
       <r>   -0.7538    1.0000 </r>
       <r>   -0.7204    1.0000 </r>
       <r>   -0.6157    1.0000 </r>
       <r>   -0.5602    1.0000 </r>
       <r>   -0.5454    1.0000 </r>
       <r>   -0.5292    1.0000 </r>
       <r>   -0.5136    1.0000 </r>
       <r>   -0.4979    1.0000 </r>
       <r>    5.6634    0.0000 </r>
       <r>    5.8478    0.0000 </r>
       <r>    5.8662    0.0000 </r>
       <r>    5.8815    0.0000 </r>
       <r>    6.2759    0.0000 </r>
       <r>    6.3366    0.0000 </r>
       <r>    6.4149    0.0000 </r>
       <r>    6.4684    0.0000 </r>
      </set>
      <set comment="kpoint 17">
       <r>  -19.7453    1.0000 </r>
       <r>  -19.7270    1.0000 </r>
       <r>  -19.6956    1.0000 </r>
       <r>  -19.6781    1.0000 </r>
       <r>  -12.5789    1.0000 </r>
       <r>  -12.5593    1.0000 </r>
       <r>  -12.5299    1.0000 </r>
       <r>  -12.5105    1.0000 </r>
       <r>   -6.9193    1.0000 </r>
       <r>   -6.8332    1.0000 </r>
       <r>   -6.7431    1.0000 </r>
       <r>   -6.6924    1.0000 </r>
       <r>   -6.6810    1.0000 </r>
       <r>   -6.6564    1.0000 </r>
       <r>   -6.3943    1.0000 </r>
       <r>   -6.2593    1.0000 </r>
       <r>   -6.2033    1.0000 </r>
       <r>   -6.1807    1.0000 </r>
       <r>   -6.1324    1.0000 </r>
       <r>   -6.1102    1.0000 </r>
       <r>   -1.1757    1.0000 </r>
       <r>   -1.1319    1.0000 </r>
       <r>   -1.0676    1.0000 </r>
       <r>   -1.0501    1.0000 </r>
       <r>   -0.7538    1.0000 </r>
       <r>   -0.7204    1.0000 </r>
       <r>   -0.6157    1.0000 </r>
       <r>   -0.5602    1.0000 </r>
       <r>   -0.5454    1.0000 </r>
       <r>   -0.5292    1.0000 </r>
       <r>   -0.5136    1.0000 </r>
       <r>   -0.4979    1.0000 </r>
       <r>    5.6634    0.0000 </r>
       <r>    5.8479    0.0000 </r>
       <r>    5.8661    0.0000 </r>
       <r>    5.8815    0.0000 </r>
       <r>    6.2759    0.0000 </r>
       <r>    6.3366    0.0000 </r>
       <r>    6.4149    0.0000 </r>
       <r>    6.4684    0.0000 </r>
      </set>
      <set comment="kpoint 18">
       <r>  -19.7292    1.0000 </r>
       <r>  -19.6939    1.0000 </r>
       <r>  -19.6930    1.0000 </r>
       <r>  -19.6577    1.0000 </r>
       <r>  -12.5911    1.0000 </r>
       <r>  -12.5407    1.0000 </r>
       <r>  -12.5295    1.0000 </r>
       <r>  -12.4777    1.0000 </r>
       <r>   -7.0108    1.0000 </r>
       <r>   -6.9611    1.0000 </r>
       <r>   -6.8697    1.0000 </r>
       <r>   -6.8695    1.0000 </r>
       <r>   -6.7648    1.0000 </r>
       <r>   -6.6165    1.0000 </r>
       <r>   -6.6093    1.0000 </r>
       <r>   -6.1748    1.0000 </r>
       <r>   -6.1729    1.0000 </r>
       <r>   -6.1295    1.0000 </r>
       <r>   -6.1284    1.0000 </r>
       <r>   -6.0827    1.0000 </r>
       <r>   -1.4422    1.0000 </r>
       <r>   -1.1394    1.0000 </r>
       <r>   -1.1313    1.0000 </r>
       <r>   -0.8802    1.0000 </r>
       <r>   -0.8056    1.0000 </r>
       <r>   -0.7222    1.0000 </r>
       <r>   -0.7162    1.0000 </r>
       <r>   -0.5986    1.0000 </r>
       <r>   -0.5953    1.0000 </r>
       <r>   -0.5358    1.0000 </r>
       <r>   -0.5233    1.0000 </r>
       <r>   -0.4585    1.0000 </r>
       <r>    5.6349    0.0000 </r>
       <r>    5.7687    0.0000 </r>
       <r>    5.8640    0.0000 </r>
       <r>    5.9740    0.0000 </r>
       <r>    5.9759    0.0000 </r>
       <r>    6.5356    0.0000 </r>
       <r>    6.5431    0.0000 </r>
       <r>    6.8920    0.0000 </r>
      </set>
      <set comment="kpoint 19">
       <r>  -19.7292    1.0000 </r>
       <r>  -19.6939    1.0000 </r>
       <r>  -19.6930    1.0000 </r>
       <r>  -19.6577    1.0000 </r>
       <r>  -12.5911    1.0000 </r>
       <r>  -12.5407    1.0000 </r>
       <r>  -12.5295    1.0000 </r>
       <r>  -12.4777    1.0000 </r>
       <r>   -7.0108    1.0000 </r>
       <r>   -6.9611    1.0000 </r>
       <r>   -6.8697    1.0000 </r>
       <r>   -6.8695    1.0000 </r>
       <r>   -6.7648    1.0000 </r>
       <r>   -6.6165    1.0000 </r>
       <r>   -6.6093    1.0000 </r>
       <r>   -6.1748    1.0000 </r>
       <r>   -6.1729    1.0000 </r>
       <r>   -6.1295    1.0000 </r>
       <r>   -6.1284    1.0000 </r>
       <r>   -6.0827    1.0000 </r>
       <r>   -1.4422    1.0000 </r>
       <r>   -1.1394    1.0000 </r>
       <r>   -1.1313    1.0000 </r>
       <r>   -0.8802    1.0000 </r>
       <r>   -0.8056    1.0000 </r>
       <r>   -0.7222    1.0000 </r>
       <r>   -0.7162    1.0000 </r>
       <r>   -0.5986    1.0000 </r>
       <r>   -0.5953    1.0000 </r>
       <r>   -0.5358    1.0000 </r>
       <r>   -0.5233    1.0000 </r>
       <r>   -0.4585    1.0000 </r>
       <r>    5.6349    0.0000 </r>
       <r>    5.7687    0.0000 </r>
       <r>    5.8640    0.0000 </r>
       <r>    5.9740    0.0000 </r>
       <r>    5.9759    0.0000 </r>
       <r>    6.5356    0.0000 </r>
       <r>    6.5431    0.0000 </r>
       <r>    6.8920    0.0000 </r>
      </set>
      <set comment="kpoint 20">
       <r>  -19.7261    1.0000 </r>
       <r>  -19.7082    1.0000 </r>
       <r>  -19.6783    1.0000 </r>
       <r>  -19.6611    1.0000 </r>
       <r>  -12.5855    1.0000 </r>
       <r>  -12.5605    1.0000 </r>
       <r>  -12.5093    1.0000 </r>
       <r>  -12.4837    1.0000 </r>
       <r>   -6.9801    1.0000 </r>
       <r>   -6.9347    1.0000 </r>
       <r>   -6.9208    1.0000 </r>
       <r>   -6.8171    1.0000 </r>
       <r>   -6.8052    1.0000 </r>
       <r>   -6.7777    1.0000 </r>
       <r>   -6.4030    1.0000 </r>
       <r>   -6.2367    1.0000 </r>
       <r>   -6.1701    1.0000 </r>
       <r>   -6.1494    1.0000 </r>
       <r>   -6.1080    1.0000 </r>
       <r>   -6.0878    1.0000 </r>
       <r>   -1.3968    1.0000 </r>
       <r>   -1.2791    1.0000 </r>
       <r>   -1.0052    1.0000 </r>
       <r>   -0.9147    1.0000 </r>
       <r>   -0.7934    1.0000 </r>
       <r>   -0.7644    1.0000 </r>
       <r>   -0.6641    1.0000 </r>
       <r>   -0.6142    1.0000 </r>
       <r>   -0.5912    1.0000 </r>
       <r>   -0.5617    1.0000 </r>
       <r>   -0.4968    1.0000 </r>
       <r>   -0.4665    1.0000 </r>
       <r>    5.6658    0.0000 </r>
       <r>    5.7944    0.0000 </r>
       <r>    5.8831    0.0000 </r>
       <r>    5.9502    0.0000 </r>
       <r>    6.0602    0.0000 </r>
       <r>    6.1596    0.0000 </r>
       <r>    6.8857    0.0000 </r>
       <r>    6.9019    0.0000 </r>
      </set>
      <set comment="kpoint 21">
       <r>  -19.7261    1.0000 </r>
       <r>  -19.7082    1.0000 </r>
       <r>  -19.6783    1.0000 </r>
       <r>  -19.6611    1.0000 </r>
       <r>  -12.5855    1.0000 </r>
       <r>  -12.5605    1.0000 </r>
       <r>  -12.5093    1.0000 </r>
       <r>  -12.4837    1.0000 </r>
       <r>   -6.9801    1.0000 </r>
       <r>   -6.9347    1.0000 </r>
       <r>   -6.9209    1.0000 </r>
       <r>   -6.8171    1.0000 </r>
       <r>   -6.8052    1.0000 </r>
       <r>   -6.7777    1.0000 </r>
       <r>   -6.4030    1.0000 </r>
       <r>   -6.2367    1.0000 </r>
       <r>   -6.1701    1.0000 </r>
       <r>   -6.1494    1.0000 </r>
       <r>   -6.1080    1.0000 </r>
       <r>   -6.0878    1.0000 </r>
       <r>   -1.3968    1.0000 </r>
       <r>   -1.2791    1.0000 </r>
       <r>   -1.0052    1.0000 </r>
       <r>   -0.9147    1.0000 </r>
       <r>   -0.7935    1.0000 </r>
       <r>   -0.7643    1.0000 </r>
       <r>   -0.6641    1.0000 </r>
       <r>   -0.6142    1.0000 </r>
       <r>   -0.5912    1.0000 </r>
       <r>   -0.5617    1.0000 </r>
       <r>   -0.4968    1.0000 </r>
       <r>   -0.4665    1.0000 </r>
       <r>    5.6658    0.0000 </r>
       <r>    5.7944    0.0000 </r>
       <r>    5.8831    0.0000 </r>
       <r>    5.9502    0.0000 </r>
       <r>    6.0602    0.0000 </r>
       <r>    6.1596    0.0000 </r>
       <r>    6.8856    0.0000 </r>
       <r>    6.9021    0.0000 </r>
      </set>
      <set comment="kpoint 22">
       <r>  -19.7261    1.0000 </r>
       <r>  -19.7082    1.0000 </r>
       <r>  -19.6783    1.0000 </r>
       <r>  -19.6611    1.0000 </r>
       <r>  -12.5855    1.0000 </r>
       <r>  -12.5605    1.0000 </r>
       <r>  -12.5093    1.0000 </r>
       <r>  -12.4837    1.0000 </r>
       <r>   -6.9801    1.0000 </r>
       <r>   -6.9346    1.0000 </r>
       <r>   -6.9209    1.0000 </r>
       <r>   -6.8171    1.0000 </r>
       <r>   -6.8052    1.0000 </r>
       <r>   -6.7777    1.0000 </r>
       <r>   -6.4030    1.0000 </r>
       <r>   -6.2367    1.0000 </r>
       <r>   -6.1701    1.0000 </r>
       <r>   -6.1494    1.0000 </r>
       <r>   -6.1080    1.0000 </r>
       <r>   -6.0878    1.0000 </r>
       <r>   -1.3968    1.0000 </r>
       <r>   -1.2791    1.0000 </r>
       <r>   -1.0052    1.0000 </r>
       <r>   -0.9147    1.0000 </r>
       <r>   -0.7935    1.0000 </r>
       <r>   -0.7643    1.0000 </r>
       <r>   -0.6641    1.0000 </r>
       <r>   -0.6142    1.0000 </r>
       <r>   -0.5912    1.0000 </r>
       <r>   -0.5617    1.0000 </r>
       <r>   -0.4968    1.0000 </r>
       <r>   -0.4665    1.0000 </r>
       <r>    5.6658    0.0000 </r>
       <r>    5.7944    0.0000 </r>
       <r>    5.8831    0.0000 </r>
       <r>    5.9502    0.0000 </r>
       <r>    6.0602    0.0000 </r>
       <r>    6.1596    0.0000 </r>
       <r>    6.8855    0.0000 </r>
       <r>    6.9022    0.0000 </r>
      </set>
      <set comment="kpoint 23">
       <r>  -19.7218    1.0000 </r>
       <r>  -19.6869    1.0000 </r>
       <r>  -19.6860    1.0000 </r>
       <r>  -19.6513    1.0000 </r>
       <r>  -12.5952    1.0000 </r>
       <r>  -12.5373    1.0000 </r>
       <r>  -12.5260    1.0000 </r>
       <r>  -12.4657    1.0000 </r>
       <r>   -7.0336    1.0000 </r>
       <r>   -7.0333    1.0000 </r>
       <r>   -6.9180    1.0000 </r>
       <r>   -6.9172    1.0000 </r>
       <r>   -6.8080    1.0000 </r>
       <r>   -6.6348    1.0000 </r>
       <r>   -6.6269    1.0000 </r>
       <r>   -6.1616    1.0000 </r>
       <r>   -6.1596    1.0000 </r>
       <r>   -6.1187    1.0000 </r>
       <r>   -6.1177    1.0000 </r>
       <r>   -6.0744    1.0000 </r>
       <r>   -1.5320    1.0000 </r>
       <r>   -1.1547    1.0000 </r>
       <r>   -1.1455    1.0000 </r>
       <r>   -0.8198    1.0000 </r>
       <r>   -0.8183    1.0000 </r>
       <r>   -0.7409    1.0000 </r>
       <r>   -0.7337    1.0000 </r>
       <r>   -0.6204    1.0000 </r>
       <r>   -0.6176    1.0000 </r>
       <r>   -0.5396    1.0000 </r>
       <r>   -0.5270    1.0000 </r>
       <r>   -0.4415    1.0000 </r>
       <r>    5.5406    0.0000 </r>
       <r>    5.6174    0.0000 </r>
       <r>    6.0043    0.0000 </r>
       <r>    6.0086    0.0000 </r>
       <r>    6.0152    0.0000 </r>
       <r>    6.5178    0.0000 </r>
       <r>    6.5256    0.0000 </r>
       <r>    7.1414    0.0000 </r>
      </set>
      <set comment="kpoint 24">
       <r>  -19.7218    1.0000 </r>
       <r>  -19.6869    1.0000 </r>
       <r>  -19.6860    1.0000 </r>
       <r>  -19.6513    1.0000 </r>
       <r>  -12.5952    1.0000 </r>
       <r>  -12.5373    1.0000 </r>
       <r>  -12.5260    1.0000 </r>
       <r>  -12.4657    1.0000 </r>
       <r>   -7.0336    1.0000 </r>
       <r>   -7.0333    1.0000 </r>
       <r>   -6.9180    1.0000 </r>
       <r>   -6.9172    1.0000 </r>
       <r>   -6.8080    1.0000 </r>
       <r>   -6.6348    1.0000 </r>
       <r>   -6.6269    1.0000 </r>
       <r>   -6.1616    1.0000 </r>
       <r>   -6.1596    1.0000 </r>
       <r>   -6.1187    1.0000 </r>
       <r>   -6.1177    1.0000 </r>
       <r>   -6.0744    1.0000 </r>
       <r>   -1.5320    1.0000 </r>
       <r>   -1.1547    1.0000 </r>
       <r>   -1.1455    1.0000 </r>
       <r>   -0.8198    1.0000 </r>
       <r>   -0.8183    1.0000 </r>
       <r>   -0.7409    1.0000 </r>
       <r>   -0.7337    1.0000 </r>
       <r>   -0.6204    1.0000 </r>
       <r>   -0.6176    1.0000 </r>
       <r>   -0.5396    1.0000 </r>
       <r>   -0.5270    1.0000 </r>
       <r>   -0.4415    1.0000 </r>
       <r>    5.5406    0.0000 </r>
       <r>    5.6174    0.0000 </r>
       <r>    6.0043    0.0000 </r>
       <r>    6.0086    0.0000 </r>
       <r>    6.0152    0.0000 </r>
       <r>    6.5178    0.0000 </r>
       <r>    6.5256    0.0000 </r>
       <r>    7.1414    0.0000 </r>
      </set>
      <set comment="kpoint 25">
       <r>  -19.7187    1.0000 </r>
       <r>  -19.7010    1.0000 </r>
       <r>  -19.6717    1.0000 </r>
       <r>  -19.6546    1.0000 </r>
       <r>  -12.5885    1.0000 </r>
       <r>  -12.5612    1.0000 </r>
       <r>  -12.5015    1.0000 </r>
       <r>  -12.4731    1.0000 </r>
       <r>   -7.0183    1.0000 </r>
       <r>   -6.9828    1.0000 </r>
       <r>   -6.9738    1.0000 </r>
       <r>   -6.8629    1.0000 </r>
       <r>   -6.8384    1.0000 </r>
       <r>   -6.8217    1.0000 </r>
       <r>   -6.4061    1.0000 </r>
       <r>   -6.2281    1.0000 </r>
       <r>   -6.1573    1.0000 </r>
       <r>   -6.1373    1.0000 </r>
       <r>   -6.0986    1.0000 </r>
       <r>   -6.0792    1.0000 </r>
       <r>   -1.4766    1.0000 </r>
       <r>   -1.3318    1.0000 </r>
       <r>   -0.9806    1.0000 </r>
       <r>   -0.8607    1.0000 </r>
       <r>   -0.8118    1.0000 </r>
       <r>   -0.7814    1.0000 </r>
       <r>   -0.6835    1.0000 </r>
       <r>   -0.6354    1.0000 </r>
       <r>   -0.6105    1.0000 </r>
       <r>   -0.5753    1.0000 </r>
       <r>   -0.4901    1.0000 </r>
       <r>   -0.4527    1.0000 </r>
       <r>    5.6068    0.0000 </r>
       <r>    5.7227    0.0000 </r>
       <r>    5.7852    0.0000 </r>
       <r>    6.0315    0.0000 </r>
       <r>    6.0858    0.0000 </r>
       <r>    6.1493    0.0000 </r>
       <r>    7.1607    0.0000 </r>
       <r>    7.1633    0.0000 </r>
      </set>
      <set comment="kpoint 26">
       <r>  -19.7187    1.0000 </r>
       <r>  -19.7010    1.0000 </r>
       <r>  -19.6717    1.0000 </r>
       <r>  -19.6546    1.0000 </r>
       <r>  -12.5885    1.0000 </r>
       <r>  -12.5612    1.0000 </r>
       <r>  -12.5015    1.0000 </r>
       <r>  -12.4731    1.0000 </r>
       <r>   -7.0183    1.0000 </r>
       <r>   -6.9828    1.0000 </r>
       <r>   -6.9738    1.0000 </r>
       <r>   -6.8629    1.0000 </r>
       <r>   -6.8384    1.0000 </r>
       <r>   -6.8217    1.0000 </r>
       <r>   -6.4061    1.0000 </r>
       <r>   -6.2281    1.0000 </r>
       <r>   -6.1573    1.0000 </r>
       <r>   -6.1373    1.0000 </r>
       <r>   -6.0986    1.0000 </r>
       <r>   -6.0792    1.0000 </r>
       <r>   -1.4766    1.0000 </r>
       <r>   -1.3318    1.0000 </r>
       <r>   -0.9806    1.0000 </r>
       <r>   -0.8607    1.0000 </r>
       <r>   -0.8118    1.0000 </r>
       <r>   -0.7814    1.0000 </r>
       <r>   -0.6835    1.0000 </r>
       <r>   -0.6354    1.0000 </r>
       <r>   -0.6105    1.0000 </r>
       <r>   -0.5753    1.0000 </r>
       <r>   -0.4901    1.0000 </r>
       <r>   -0.4527    1.0000 </r>
       <r>    5.6068    0.0000 </r>
       <r>    5.7227    0.0000 </r>
       <r>    5.7852    0.0000 </r>
       <r>    6.0315    0.0000 </r>
       <r>    6.0858    0.0000 </r>
       <r>    6.1493    0.0000 </r>
       <r>    7.1608    0.0000 </r>
       <r>    7.1632    0.0000 </r>
      </set>
      <set comment="kpoint 27">
       <r>  -19.7841    1.0000 </r>
       <r>  -19.7451    1.0000 </r>
       <r>  -19.7441    1.0000 </r>
       <r>  -19.7050    1.0000 </r>
       <r>  -12.5813    1.0000 </r>
       <r>  -12.5691    1.0000 </r>
       <r>  -12.5572    1.0000 </r>
       <r>  -12.5454    1.0000 </r>
       <r>   -6.8458    1.0000 </r>
       <r>   -6.5938    1.0000 </r>
       <r>   -6.5872    1.0000 </r>
       <r>   -6.3734    1.0000 </r>
       <r>   -6.3108    1.0000 </r>
       <r>   -6.3023    1.0000 </r>
       <r>   -6.3008    1.0000 </r>
       <r>   -6.2760    1.0000 </r>
       <r>   -6.2721    1.0000 </r>
       <r>   -6.2685    1.0000 </r>
       <r>   -6.2594    1.0000 </r>
       <r>   -6.2271    1.0000 </r>
       <r>   -1.3868    1.0000 </r>
       <r>   -1.0130    1.0000 </r>
       <r>   -1.0065    1.0000 </r>
       <r>   -0.7098    1.0000 </r>
       <r>   -0.6231    1.0000 </r>
       <r>   -0.5827    1.0000 </r>
       <r>   -0.5720    1.0000 </r>
       <r>   -0.5649    1.0000 </r>
       <r>   -0.5292    1.0000 </r>
       <r>   -0.5206    1.0000 </r>
       <r>   -0.4513    1.0000 </r>
       <r>   -0.4319    1.0000 </r>
       <r>    5.2025    0.0000 </r>
       <r>    5.2703    0.0000 </r>
       <r>    5.3945    0.0000 </r>
       <r>    5.7434    0.0000 </r>
       <r>    5.7502    0.0000 </r>
       <r>    6.1440    0.0000 </r>
       <r>    6.1461    0.0000 </r>
       <r>    6.2648    0.0000 </r>
      </set>
      <set comment="kpoint 28">
       <r>  -19.7804    1.0000 </r>
       <r>  -19.7615    1.0000 </r>
       <r>  -19.7274    1.0000 </r>
       <r>  -19.7091    1.0000 </r>
       <r>  -12.5811    1.0000 </r>
       <r>  -12.5692    1.0000 </r>
       <r>  -12.5572    1.0000 </r>
       <r>  -12.5454    1.0000 </r>
       <r>   -6.8141    1.0000 </r>
       <r>   -6.7217    1.0000 </r>
       <r>   -6.4496    1.0000 </r>
       <r>   -6.3650    1.0000 </r>
       <r>   -6.3430    1.0000 </r>
       <r>   -6.3361    1.0000 </r>
       <r>   -6.2821    1.0000 </r>
       <r>   -6.2745    1.0000 </r>
       <r>   -6.2700    1.0000 </r>
       <r>   -6.2660    1.0000 </r>
       <r>   -6.2589    1.0000 </r>
       <r>   -6.2365    1.0000 </r>
       <r>   -1.3401    1.0000 </r>
       <r>   -1.2057    1.0000 </r>
       <r>   -0.8007    1.0000 </r>
       <r>   -0.6925    1.0000 </r>
       <r>   -0.6594    1.0000 </r>
       <r>   -0.6415    1.0000 </r>
       <r>   -0.5612    1.0000 </r>
       <r>   -0.5406    1.0000 </r>
       <r>   -0.5149    1.0000 </r>
       <r>   -0.5045    1.0000 </r>
       <r>   -0.4669    1.0000 </r>
       <r>   -0.4650    1.0000 </r>
       <r>    5.3735    0.0000 </r>
       <r>    5.3939    0.0000 </r>
       <r>    5.4359    0.0000 </r>
       <r>    5.5586    0.0000 </r>
       <r>    5.7150    0.0000 </r>
       <r>    5.8686    0.0000 </r>
       <r>    5.9729    0.0000 </r>
       <r>    6.1772    0.0000 </r>
      </set>
      <set comment="kpoint 29">
       <r>  -19.7804    1.0000 </r>
       <r>  -19.7615    1.0000 </r>
       <r>  -19.7274    1.0000 </r>
       <r>  -19.7091    1.0000 </r>
       <r>  -12.5811    1.0000 </r>
       <r>  -12.5692    1.0000 </r>
       <r>  -12.5572    1.0000 </r>
       <r>  -12.5454    1.0000 </r>
       <r>   -6.8141    1.0000 </r>
       <r>   -6.7217    1.0000 </r>
       <r>   -6.4496    1.0000 </r>
       <r>   -6.3650    1.0000 </r>
       <r>   -6.3430    1.0000 </r>
       <r>   -6.3361    1.0000 </r>
       <r>   -6.2820    1.0000 </r>
       <r>   -6.2745    1.0000 </r>
       <r>   -6.2700    1.0000 </r>
       <r>   -6.2660    1.0000 </r>
       <r>   -6.2589    1.0000 </r>
       <r>   -6.2365    1.0000 </r>
       <r>   -1.3401    1.0000 </r>
       <r>   -1.2057    1.0000 </r>
       <r>   -0.8007    1.0000 </r>
       <r>   -0.6925    1.0000 </r>
       <r>   -0.6594    1.0000 </r>
       <r>   -0.6415    1.0000 </r>
       <r>   -0.5612    1.0000 </r>
       <r>   -0.5406    1.0000 </r>
       <r>   -0.5149    1.0000 </r>
       <r>   -0.5045    1.0000 </r>
       <r>   -0.4669    1.0000 </r>
       <r>   -0.4650    1.0000 </r>
       <r>    5.3735    0.0000 </r>
       <r>    5.3939    0.0000 </r>
       <r>    5.4359    0.0000 </r>
       <r>    5.5586    0.0000 </r>
       <r>    5.7150    0.0000 </r>
       <r>    5.8686    0.0000 </r>
       <r>    5.9729    0.0000 </r>
       <r>    6.1772    0.0000 </r>
      </set>
      <set comment="kpoint 30">
       <r>  -19.7654    1.0000 </r>
       <r>  -19.7276    1.0000 </r>
       <r>  -19.7266    1.0000 </r>
       <r>  -19.6887    1.0000 </r>
       <r>  -12.5719    1.0000 </r>
       <r>  -12.5571    1.0000 </r>
       <r>  -12.5454    1.0000 </r>
       <r>  -12.5312    1.0000 </r>
       <r>   -6.8897    1.0000 </r>
       <r>   -6.6273    1.0000 </r>
       <r>   -6.6213    1.0000 </r>
       <r>   -6.5030    1.0000 </r>
       <r>   -6.4849    1.0000 </r>
       <r>   -6.4467    1.0000 </r>
       <r>   -6.4438    1.0000 </r>
       <r>   -6.3049    1.0000 </r>
       <r>   -6.2661    1.0000 </r>
       <r>   -6.2648    1.0000 </r>
       <r>   -6.2375    1.0000 </r>
       <r>   -6.2167    1.0000 </r>
       <r>   -1.2275    1.0000 </r>
       <r>   -1.0020    1.0000 </r>
       <r>   -1.0000    1.0000 </r>
       <r>   -0.8784    1.0000 </r>
       <r>   -0.7935    1.0000 </r>
       <r>   -0.6525    1.0000 </r>
       <r>   -0.6474    1.0000 </r>
       <r>   -0.5795    1.0000 </r>
       <r>   -0.5696    1.0000 </r>
[...]
       <r>   -1.2597    1.0000 </r>
       <r>   -1.1116    1.0000 </r>
       <r>   -1.0026    1.0000 </r>
       <r>   -0.9891    1.0000 </r>
       <r>   -0.9111    1.0000 </r>
       <r>   -0.8554    1.0000 </r>
       <r>   -0.6878    1.0000 </r>
       <r>   -0.5236    1.0000 </r>
       <r>    5.8249    0.0000 </r>
       <r>    5.9061    0.0000 </r>
       <r>    6.2726    0.0000 </r>
       <r>    6.3695    0.0000 </r>
       <r>    7.2179    0.0000 </r>
       <r>    7.5845    0.0000 </r>
       <r>    7.6911    0.0000 </r>
       <r>    7.7136    0.0000 </r>
      </set>
      <set comment="kpoint 95">
       <r>  -19.6560    1.0000 </r>
       <r>  -19.6229    1.0000 </r>
       <r>  -19.6220    1.0000 </r>
       <r>  -19.5891    1.0000 </r>
       <r>  -12.4717    1.0000 </r>
       <r>  -12.4356    1.0000 </r>
       <r>  -12.4245    1.0000 </r>
       <r>  -12.3877    1.0000 </r>
       <r>   -7.0338    1.0000 </r>
       <r>   -7.0338    1.0000 </r>
       <r>   -6.9255    1.0000 </r>
       <r>   -6.9255    1.0000 </r>
       <r>   -6.9233    1.0000 </r>
       <r>   -6.9233    1.0000 </r>
       <r>   -6.8078    1.0000 </r>
       <r>   -6.8068    1.0000 </r>
       <r>   -6.8068    1.0000 </r>
       <r>   -6.4646    1.0000 </r>
       <r>   -6.4575    1.0000 </r>
       <r>   -6.0759    1.0000 </r>
       <r>   -1.4545    1.0000 </r>
       <r>   -1.4545    1.0000 </r>
       <r>   -1.4544    1.0000 </r>
       <r>   -1.1421    1.0000 </r>
       <r>   -1.1421    1.0000 </r>
       <r>   -1.1328    1.0000 </r>
       <r>   -1.1328    1.0000 </r>
       <r>   -1.0054    1.0000 </r>
       <r>   -0.9950    1.0000 </r>
       <r>   -0.8182    1.0000 </r>
       <r>   -0.8182    1.0000 </r>
       <r>   -0.4431    1.0000 </r>
       <r>    5.5408    0.0000 </r>
       <r>    5.6175    0.0000 </r>
       <r>    6.7863    0.0000 </r>
       <r>    6.7906    0.0000 </r>
       <r>    7.1892    0.0000 </r>
       <r>    7.1922    0.0000 </r>
       <r>    7.5678    0.0000 </r>
       <r>    7.5721    0.0000 </r>
      </set>
      <set comment="kpoint 96">
       <r>  -19.6533    1.0000 </r>
       <r>  -19.6360    1.0000 </r>
       <r>  -19.6087    1.0000 </r>
       <r>  -19.5921    1.0000 </r>
       <r>  -12.4683    1.0000 </r>
       <r>  -12.4476    1.0000 </r>
       <r>  -12.4123    1.0000 </r>
       <r>  -12.3913    1.0000 </r>
       <r>   -7.0203    1.0000 </r>
       <r>   -7.0203    1.0000 </r>
       <r>   -6.9788    1.0000 </r>
       <r>   -6.9788    1.0000 </r>
       <r>   -6.8675    1.0000 </r>
       <r>   -6.8675    1.0000 </r>
       <r>   -6.8227    1.0000 </r>
       <r>   -6.8227    1.0000 </r>
       <r>   -6.7636    1.0000 </r>
       <r>   -6.6380    1.0000 </r>
       <r>   -6.2742    1.0000 </r>
       <r>   -6.1302    1.0000 </r>
       <r>   -1.4123    1.0000 </r>
       <r>   -1.4123    1.0000 </r>
       <r>   -1.3980    1.0000 </r>
       <r>   -1.2955    1.0000 </r>
       <r>   -1.2955    1.0000 </r>
       <r>   -1.2366    1.0000 </r>
       <r>   -0.9788    1.0000 </r>
       <r>   -0.9788    1.0000 </r>
       <r>   -0.8609    1.0000 </r>
       <r>   -0.8609    1.0000 </r>
       <r>   -0.7389    1.0000 </r>
       <r>   -0.5262    1.0000 </r>
       <r>    5.7391    0.0000 </r>
       <r>    5.7760    0.0000 </r>
       <r>    6.2042    0.0000 </r>
       <r>    6.3105    0.0000 </r>
       <r>    7.3904    0.0000 </r>
       <r>    7.5823    0.0000 </r>
       <r>    7.5827    0.0000 </r>
       <r>    7.6322    0.0000 </r>
      </set>
     </set>
    </set>
   </array>
  </eigenvalues>
  <separator name="orbital magnetization" >
   <v name="MAGDIPOLOUT">      0.00000000      0.00000000      0.00000000</v>
  </separator>
  <dos>
   <i name="efermi">     -0.30664959 </i>
   <total>
    <array>
     <dimension dim="1">gridpoints</dimension>
     <dimension dim="2">spin</dimension>
     <field>energy</field>
     <field>total</field>
     <field>integrated</field>
     <set>
      <set comment="spin 1">
       <r>   -21.1784     0.0000     0.0000 </r>
       <r>   -21.0772     0.0000     0.0000 </r>
       <r>   -20.9760     0.0000     0.0000 </r>
       <r>   -20.8748     0.0000     0.0000 </r>
       <r>   -20.7736     0.0000     0.0000 </r>
       <r>   -20.6724     0.0000     0.0000 </r>
       <r>   -20.5712     0.0000     0.0000 </r>
       <r>   -20.4700     0.0000     0.0000 </r>
       <r>   -20.3688     0.0000     0.0000 </r>
       <r>   -20.2676     0.0000     0.0000 </r>
       <r>   -20.1664     0.0000     0.0000 </r>
       <r>   -20.0652     0.0000     0.0000 </r>
       <r>   -19.9640     0.0000     0.0000 </r>
       <r>   -19.8629     0.0000     0.0000 </r>
       <r>   -19.7617     4.3434     0.4395 </r>
       <r>   -19.6605    47.3064     5.8207 </r>
       <r>   -19.5593    10.3420     8.0000 </r>
       <r>   -19.4581     0.0000     8.0000 </r>
       <r>   -19.3569     0.0000     8.0000 </r>
       <r>   -19.2557     0.0000     8.0000 </r>
       <r>   -19.1545     0.0000     8.0000 </r>
       <r>   -19.0533     0.0000     8.0000 </r>
       <r>   -18.9521     0.0000     8.0000 </r>
       <r>   -18.8509     0.0000     8.0000 </r>
       <r>   -18.7497     0.0000     8.0000 </r>
       <r>   -18.6485     0.0000     8.0000 </r>
       <r>   -18.5473     0.0000     8.0000 </r>
       <r>   -18.4461     0.0000     8.0000 </r>
       <r>   -18.3449     0.0000     8.0000 </r>
       <r>   -18.2437     0.0000     8.0000 </r>
       <r>   -18.1425     0.0000     8.0000 </r>
       <r>   -18.0413     0.0000     8.0000 </r>
       <r>   -17.9401     0.0000     8.0000 </r>
       <r>   -17.8389     0.0000     8.0000 </r>
       <r>   -17.7377     0.0000     8.0000 </r>
       <r>   -17.6365     0.0000     8.0000 </r>
       <r>   -17.5353     0.0000     8.0000 </r>
       <r>   -17.4341     0.0000     8.0000 </r>
       <r>   -17.3329     0.0000     8.0000 </r>
       <r>   -17.2317     0.0000     8.0000 </r>
       <r>   -17.1305     0.0000     8.0000 </r>
       <r>   -17.0294     0.0000     8.0000 </r>
       <r>   -16.9282     0.0000     8.0000 </r>
       <r>   -16.8270     0.0000     8.0000 </r>
       <r>   -16.7258     0.0000     8.0000 </r>
       <r>   -16.6246     0.0000     8.0000 </r>
       <r>   -16.5234     0.0000     8.0000 </r>
       <r>   -16.4222     0.0000     8.0000 </r>
       <r>   -16.3210     0.0000     8.0000 </r>
       <r>   -16.2198     0.0000     8.0000 </r>
       <r>   -16.1186     0.0000     8.0000 </r>
       <r>   -16.0174     0.0000     8.0000 </r>
       <r>   -15.9162     0.0000     8.0000 </r>
       <r>   -15.8150     0.0000     8.0000 </r>
       <r>   -15.7138     0.0000     8.0000 </r>
       <r>   -15.6126     0.0000     8.0000 </r>
       <r>   -15.5114     0.0000     8.0000 </r>
       <r>   -15.4102     0.0000     8.0000 </r>
       <r>   -15.3090     0.0000     8.0000 </r>
       <r>   -15.2078     0.0000     8.0000 </r>
       <r>   -15.1066     0.0000     8.0000 </r>
       <r>   -15.0054     0.0000     8.0000 </r>
       <r>   -14.9042     0.0000     8.0000 </r>
       <r>   -14.8030     0.0000     8.0000 </r>
       <r>   -14.7018     0.0000     8.0000 </r>
       <r>   -14.6006     0.0000     8.0000 </r>
       <r>   -14.4994     0.0000     8.0000 </r>
       <r>   -14.3982     0.0000     8.0000 </r>
       <r>   -14.2971     0.0000     8.0000 </r>
       <r>   -14.1959     0.0000     8.0000 </r>
       <r>   -14.0947     0.0000     8.0000 </r>
       <r>   -13.9935     0.0000     8.0000 </r>
       <r>   -13.8923     0.0000     8.0000 </r>
       <r>   -13.7911     0.0000     8.0000 </r>
       <r>   -13.6899     0.0000     8.0000 </r>
       <r>   -13.5887     0.0000     8.0000 </r>
       <r>   -13.4875     0.0000     8.0000 </r>
       <r>   -13.3863     0.0000     8.0000 </r>
       <r>   -13.2851     0.0000     8.0000 </r>
       <r>   -13.1839     0.0000     8.0000 </r>
       <r>   -13.0827     0.0000     8.0000 </r>
       <r>   -12.9815     0.0000     8.0000 </r>
       <r>   -12.8803     0.0000     8.0000 </r>
       <r>   -12.7791     0.0000     8.0000 </r>
       <r>   -12.6779     0.0000     8.0000 </r>
       <r>   -12.5767     6.3597     8.6436 </r>
       <r>   -12.4755    42.9651    14.2348 </r>
       <r>   -12.3743    10.0751    15.9996 </r>
       <r>   -12.2731     0.0000    16.0000 </r>
       <r>   -12.1719     0.0000    16.0000 </r>
       <r>   -12.0707     0.0000    16.0000 </r>
       <r>   -11.9695     0.0000    16.0000 </r>
       <r>   -11.8683     0.0000    16.0000 </r>
       <r>   -11.7671     0.0000    16.0000 </r>
       <r>   -11.6659     0.0000    16.0000 </r>
       <r>   -11.5647     0.0000    16.0000 </r>
       <r>   -11.4636     0.0000    16.0000 </r>
       <r>   -11.3624     0.0000    16.0000 </r>
       <r>   -11.2612     0.0000    16.0000 </r>
       <r>   -11.1600     0.0000    16.0000 </r>
       <r>   -11.0588     0.0000    16.0000 </r>
       <r>   -10.9576     0.0000    16.0000 </r>
       <r>   -10.8564     0.0000    16.0000 </r>
       <r>   -10.7552     0.0000    16.0000 </r>
       <r>   -10.6540     0.0000    16.0000 </r>
       <r>   -10.5528     0.0000    16.0000 </r>
       <r>   -10.4516     0.0000    16.0000 </r>
       <r>   -10.3504     0.0000    16.0000 </r>
       <r>   -10.2492     0.0000    16.0000 </r>
       <r>   -10.1480     0.0000    16.0000 </r>
       <r>   -10.0468     0.0000    16.0000 </r>
       <r>    -9.9456     0.0000    16.0000 </r>
       <r>    -9.8444     0.0000    16.0000 </r>
       <r>    -9.7432     0.0000    16.0000 </r>
       <r>    -9.6420     0.0000    16.0000 </r>
       <r>    -9.5408     0.0000    16.0000 </r>
       <r>    -9.4396     0.0000    16.0000 </r>
       <r>    -9.3384     0.0000    16.0000 </r>
       <r>    -9.2372     0.0000    16.0000 </r>
       <r>    -9.1360     0.0000    16.0000 </r>
       <r>    -9.0348     0.0000    16.0000 </r>
       <r>    -8.9336     0.0000    16.0000 </r>
       <r>    -8.8324     0.0000    16.0000 </r>
       <r>    -8.7312     0.0000    16.0000 </r>
       <r>    -8.6301     0.0000    16.0000 </r>
       <r>    -8.5289     0.0000    16.0000 </r>
       <r>    -8.4277     0.0000    16.0000 </r>
       <r>    -8.3265     0.0000    16.0000 </r>
       <r>    -8.2253     0.0000    16.0000 </r>
       <r>    -8.1241     0.0000    16.0000 </r>
       <r>    -8.0229     0.0000    16.0000 </r>
       <r>    -7.9217     0.0000    16.0000 </r>
       <r>    -7.8205     0.0000    16.0000 </r>
       <r>    -7.7193     0.0000    16.0000 </r>
       <r>    -7.6181     0.0000    16.0000 </r>
       <r>    -7.5169     0.0000    16.0000 </r>
       <r>    -7.4157     0.0000    16.0000 </r>
       <r>    -7.3145     0.0000    16.0000 </r>
       <r>    -7.2133     0.0000    16.0000 </r>
       <r>    -7.1121     0.0000    16.0000 </r>
       <r>    -7.0109     1.5513    16.1570 </r>
       <r>    -6.9097    19.3851    18.3217 </r>
       <r>    -6.8085    31.3319    22.3042 </r>
       <r>    -6.7073    22.0088    25.0539 </r>
       <r>    -6.6061    16.7737    27.3908 </r>
       <r>    -6.5049    10.7790    28.9042 </r>
       <r>    -6.4037    19.7724    31.4810 </r>
       <r>    -6.3025    14.2341    33.6405 </r>
       <r>    -6.2013    32.9670    37.4363 </r>
       <r>    -6.1001    16.7783    39.7846 </r>
       <r>    -5.9989     0.1976    40.0000 </r>
       <r>    -5.8978     0.0000    40.0000 </r>
       <r>    -5.7966     0.0000    40.0000 </r>
       <r>    -5.6954     0.0000    40.0000 </r>
       <r>    -5.5942     0.0000    40.0000 </r>
       <r>    -5.4930     0.0000    40.0000 </r>
       <r>    -5.3918     0.0000    40.0000 </r>
       <r>    -5.2906     0.0000    40.0000 </r>
       <r>    -5.1894     0.0000    40.0000 </r>
       <r>    -5.0882     0.0000    40.0000 </r>
       <r>    -4.9870     0.0000    40.0000 </r>
       <r>    -4.8858     0.0000    40.0000 </r>
       <r>    -4.7846     0.0000    40.0000 </r>
       <r>    -4.6834     0.0000    40.0000 </r>
       <r>    -4.5822     0.0000    40.0000 </r>
       <r>    -4.4810     0.0000    40.0000 </r>
       <r>    -4.3798     0.0000    40.0000 </r>
       <r>    -4.2786     0.0000    40.0000 </r>
       <r>    -4.1774     0.0000    40.0000 </r>
       <r>    -4.0762     0.0000    40.0000 </r>
       <r>    -3.9750     0.0000    40.0000 </r>
       <r>    -3.8738     0.0000    40.0000 </r>
       <r>    -3.7726     0.0000    40.0000 </r>
       <r>    -3.6714     0.0000    40.0000 </r>
       <r>    -3.5702     0.0000    40.0000 </r>
       <r>    -3.4690     0.0000    40.0000 </r>
       <r>    -3.3678     0.0000    40.0000 </r>
       <r>    -3.2666     0.0000    40.0000 </r>
       <r>    -3.1654     0.0000    40.0000 </r>
       <r>    -3.0643     0.0000    40.0000 </r>
       <r>    -2.9631     0.0000    40.0000 </r>
       <r>    -2.8619     0.0000    40.0000 </r>
       <r>    -2.7607     0.0000    40.0000 </r>
       <r>    -2.6595     0.0000    40.0000 </r>
       <r>    -2.5583     0.0000    40.0000 </r>
       <r>    -2.4571     0.0000    40.0000 </r>
       <r>    -2.3559     0.0000    40.0000 </r>
       <r>    -2.2547     0.0000    40.0000 </r>
       <r>    -2.1535     0.0000    40.0000 </r>
       <r>    -2.0523     0.0000    40.0000 </r>
       <r>    -1.9511     0.0000    40.0000 </r>
       <r>    -1.8499     0.0000    40.0000 </r>
       <r>    -1.7487     0.0000    40.0000 </r>
       <r>    -1.6475     0.0000    40.0000 </r>
       <r>    -1.5463     0.0042    40.0004 </r>
       <r>    -1.4451     1.1253    40.1339 </r>
       <r>    -1.3439     5.6188    40.7286 </r>
       <r>    -1.2427     6.6914    41.6505 </r>
       <r>    -1.1415    13.4275    43.5322 </r>
       <r>    -1.0403    29.1441    47.0694 </r>
       <r>    -0.9391    17.0212    49.4025 </r>
       <r>    -0.8379    20.2841    51.6395 </r>
       <r>    -0.7367    18.0900    54.0440 </r>
       <r>    -0.6355    18.3592    56.6046 </r>
       <r>    -0.5343    41.0954    61.3188 </r>
       <r>    -0.4331    13.6130    63.8309 </r>
       <r>    -0.3319     0.4611    64.0000 </r>
       <r>    -0.2308     0.0000    64.0000 </r>
       <r>    -0.1296     0.0000    64.0000 </r>
       <r>    -0.0284     0.0000    64.0000 </r>
       <r>     0.0728     0.0000    64.0000 </r>
       <r>     0.1740     0.0000    64.0000 </r>
       <r>     0.2752     0.0000    64.0000 </r>
       <r>     0.3764     0.0000    64.0000 </r>
       <r>     0.4776     0.0000    64.0000 </r>
       <r>     0.5788     0.0000    64.0000 </r>
       <r>     0.6800     0.0000    64.0000 </r>
       <r>     0.7812     0.0000    64.0000 </r>
       <r>     0.8824     0.0000    64.0000 </r>
       <r>     0.9836     0.0000    64.0000 </r>
       <r>     1.0848     0.0000    64.0000 </r>
       <r>     1.1860     0.0000    64.0000 </r>
       <r>     1.2872     0.0000    64.0000 </r>
       <r>     1.3884     0.0000    64.0000 </r>
       <r>     1.4896     0.0000    64.0000 </r>
       <r>     1.5908     0.0000    64.0000 </r>
       <r>     1.6920     0.0000    64.0000 </r>
       <r>     1.7932     0.0000    64.0000 </r>
       <r>     1.8944     0.0000    64.0000 </r>
       <r>     1.9956     0.0000    64.0000 </r>
       <r>     2.0968     0.0000    64.0000 </r>
       <r>     2.1980     0.0000    64.0000 </r>
       <r>     2.2992     0.0000    64.0000 </r>
       <r>     2.4004     0.0000    64.0000 </r>
       <r>     2.5016     0.0000    64.0000 </r>
       <r>     2.6027     0.0000    64.0000 </r>
       <r>     2.7039     0.0000    64.0000 </r>
       <r>     2.8051     0.0000    64.0000 </r>
       <r>     2.9063     0.0000    64.0000 </r>
       <r>     3.0075     0.0000    64.0000 </r>
       <r>     3.1087     0.0000    64.0000 </r>
       <r>     3.2099     0.0000    64.0000 </r>
       <r>     3.3111     0.0000    64.0000 </r>
       <r>     3.4123     0.0000    64.0000 </r>
       <r>     3.5135     0.0000    64.0000 </r>
       <r>     3.6147     0.0000    64.0000 </r>
       <r>     3.7159     0.0000    64.0000 </r>
       <r>     3.8171     0.0000    64.0000 </r>
       <r>     3.9183     0.0000    64.0000 </r>
       <r>     4.0195     0.0000    64.0000 </r>
       <r>     4.1207     0.0000    64.0000 </r>
       <r>     4.2219     0.0000    64.0000 </r>
       <r>     4.3231     0.0000    64.0000 </r>
       <r>     4.4243     0.0000    64.0000 </r>
       <r>     4.5255     0.0000    64.0000 </r>
       <r>     4.6267     0.0000    64.0000 </r>
       <r>     4.7279     0.0000    64.0000 </r>
       <r>     4.8291     0.0659    64.0067 </r>
       <r>     4.9303     0.0000    64.0067 </r>
       <r>     5.0315     0.3442    64.0415 </r>
       <r>     5.1327     0.3953    64.1000 </r>
       <r>     5.2339     1.5836    64.2603 </r>
       <r>     5.3350     0.6498    64.3524 </r>
       <r>     5.4362     2.8291    64.7330 </r>
       <r>     5.5374     0.0663    64.7734 </r>
       <r>     5.6386     3.7253    65.2437 </r>
       <r>     5.7398     3.8689    65.6515 </r>
       <r>     5.8410     5.9088    66.3513 </r>
       <r>     5.9422     8.8668    67.4907 </r>
       <r>     6.0434     6.5086    68.2920 </r>
       <r>     6.1446     9.1046    69.8015 </r>
       <r>     6.2458     5.7332    70.7402 </r>
       <r>     6.3470     9.3733    71.8152 </r>
       <r>     6.4482     6.0584    72.6398 </r>
       <r>     6.5494     8.6078    73.6711 </r>
       <r>     6.6506     6.8319    74.6380 </r>
       <r>     6.7518     5.4423    75.3774 </r>
       <r>     6.8530    11.4673    76.6805 </r>
       <r>     6.9542     9.3796    77.8159 </r>
       <r>     7.0554     3.1544    78.2525 </r>
       <r>     7.1566     1.7571    78.4845 </r>
       <r>     7.2578     1.9763    78.8133 </r>
       <r>     7.3590     1.1198    78.9267 </r>
       <r>     7.4602     0.9278    79.0672 </r>
       <r>     7.5614     0.8126    79.2022 </r>
       <r>     7.6626     2.4437    79.5273 </r>
       <r>     7.7638     2.5327    79.8963 </r>
       <r>     7.8650     0.7905    80.0000 </r>
       <r>     7.9662     0.0000    80.0000 </r>
       <r>     8.0674     0.0000    80.0000 </r>
       <r>     8.1685     0.0000    80.0000 </r>
       <r>     8.2697     0.0000    80.0000 </r>
       <r>     8.3709     0.0000    80.0000 </r>
       <r>     8.4721     0.0000    80.0000 </r>
       <r>     8.5733     0.0000    80.0000 </r>
       <r>     8.6745     0.0000    80.0000 </r>
       <r>     8.7757     0.0000    80.0000 </r>
       <r>     8.8769     0.0000    80.0000 </r>
       <r>     8.9781     0.0000    80.0000 </r>
       <r>     9.0793     0.0000    80.0000 </r>
       <r>     9.1805     0.0000    80.0000 </r>
      </set>
     </set>
    </array>
   </total>
  </dos>
 </calculation>
 <structure name="finalpos" >
  <crystal>
   <varray name="basis" >
    <v>      16.57479336       0.00000000       0.00000000 </v>
    <v>       0.00000000       4.14369834       0.00000000 </v>
    <v>       0.00000000       0.00000000       4.14369834 </v>
   </varray>
   <i name="volume">    284.59311253 </i>
   <varray name="rec_basis" >
    <v>       0.06033258      -0.00000000       0.00000000 </v>
    <v>       0.00000000       0.24133031       0.00000000 </v>
    <v>      -0.00000000      -0.00000000       0.24133031 </v>
   </varray>
  </crystal>
  <varray name="positions" >
   <v>       0.00058531       0.00058531       0.00000000 </v>
   <v>       0.25000000       0.00000000       0.00000000 </v>
   <v>       0.50000000       0.00000000       0.00000000 </v>
   <v>       0.75000000       0.00000000       0.00000000 </v>
   <v>       0.12500000       0.50000000       0.50000000 </v>
   <v>       0.37500000       0.50000000       0.50000000 </v>
   <v>       0.62500000       0.50000000       0.50000000 </v>
   <v>       0.87500000       0.50000000       0.50000000 </v>
  </varray>
 </structure>
</modeling>
