phonopy:
  version: "2.34.0"
  frequency_unit_conversion_factor: 15.633302
  symmetry_tolerance: 1.00000e-05
  configuration:
    force_sets: "READ"
    force_constants: "WRITE"
    fc_format: "HDF5"
    fc_symmetry: ".FALSE."
    include_fc: ".TRUE."
    primitive_axes: "1 0 0 0 1 0 0 0 1"
    dim: "1 0 0 0 1 -1 1 1 1"

physical_unit:
  atomic_mass: "AMU"
  length: "angstrom"
  force: "eV/angstrom"
  force_constants: "eV/angstrom^2"

space_group:
  type: "Pm-3m"
  number: 221
  Hall_symbol: "-P 4 2 3"

primitive_matrix:
- [  1.000000000000000,  0.000000000000000,  0.000000000000000 ]
- [  0.000000000000000,  1.000000000000000,  0.000000000000000 ]
- [  0.000000000000000,  0.000000000000000,  1.000000000000000 ]

supercell_matrix:
- [   1,   0,   0 ]
- [   0,   1,  -1 ]
- [   1,   1,   1 ]

primitive_cell:
  lattice:
  - [     4.143698340000000,     0.000000000000000,     0.000000000000000 ] # a
  - [     0.000000000000001,     4.143698340000000,     0.000000000000000 ] # b
  - [     0.000000000000000,     0.000000000000000,     4.143698340000000 ] # c
  points:
  - symbol: Cs # 1
    coordinates: [  0.000000000000000,  0.000000000000000,  0.000000000000000 ]
    mass: 132.905452
  - symbol: Cl # 2
    coordinates: [  0.500000000000000,  0.500000000000000,  0.500000000000000 ]
    mass: 35.453000
  reciprocal_lattice: # without 2pi
  - [     0.241330308808146,    -0.000000000000000,     0.000000000000000 ] # a*
  - [     0.000000000000000,     0.241330308808146,     0.000000000000000 ] # b*
  - [    -0.000000000000000,    -0.000000000000000,     0.241330308808146 ] # c*

unit_cell:
  lattice:
  - [     4.143698340000000,     0.000000000000000,     0.000000000000000 ] # a
  - [     0.000000000000001,     4.143698340000000,     0.000000000000000 ] # b
  - [     0.000000000000000,     0.000000000000000,     4.143698340000000 ] # c
  points:
  - symbol: Cs # 1
    coordinates: [  0.000000000000000,  0.000000000000000,  0.000000000000000 ]
    mass: 132.905452
    reduced_to: 1
  - symbol: Cl # 2
    coordinates: [  0.500000000000000,  0.500000000000000,  0.500000000000000 ]
    mass: 35.453000
    reduced_to: 2

supercell:
  lattice:
  - [     4.143698340000000,     0.000000000000000,     4.143698340000000 ] # a
  - [     0.000000000000001,     4.143698340000000,     4.143698340000000 ] # b
  - [    -0.000000000000001,    -4.143698340000000,     4.143698339999999 ] # c
  points:
  - symbol: Cs # 1
    coordinates: [  0.000000000000000,  0.000000000000000,  0.000000000000000 ]
    mass: 132.905452
    reduced_to: 1
  - symbol: Cs # 2
    coordinates: [  0.000000000000000,  0.500000000000000,  0.500000000000000 ]
    mass: 132.905452
    reduced_to: 1
  - symbol: Cl # 3
    coordinates: [  0.500000000000000,  0.250000000000000,  0.750000000000000 ]
    mass: 35.453000
    reduced_to: 3
  - symbol: Cl # 4
    coordinates: [  0.500000000000000,  0.750000000000000,  0.250000000000000 ]
    mass: 35.453000
    reduced_to: 3

force_constants:
  format: "compact"
  shape: [ 2, 4 ]
  elements:
  - # (1, 1)
    - [     1.303547108476708,     0.000000000000000,     0.000000000000000 ]
    - [     0.000000000000000,     1.303547108476708,    -0.000000000000000 ]
    - [    -0.000000000000000,     0.000000000000000,     1.303547108476709 ]
  - # (1, 2)
    - [    -0.514270276675600,    -0.000000000000000,    -0.000000000000000 ]
    - [    -0.000000000000000,    -0.514270276675600,     0.000000000000000 ]
    - [     0.000000000000000,    -0.000000000000000,    -0.514270276675600 ]
  - # (1, 3)
    - [    -0.394639123007336,    -0.000000000000000,    -0.000000000000000 ]
    - [    -0.000000000000000,    -0.394639123007336,     0.000000000000000 ]
    - [     0.000000000000000,     0.000000000000000,    -0.394639123007336 ]
  - # (1, 4)
    - [    -0.394639123007336,    -0.000000000000000,    -0.000000000000000 ]
    - [    -0.000000000000000,    -0.394639123007336,     0.000000000000000 ]
    - [     0.000000000000000,     0.000000000000000,    -0.394639123007336 ]
  - # (2, 1)
    - [    -0.396993788588686,    -0.000000000000000,    -0.000000000000000 ]
    - [     0.000000000000000,    -0.396993788588687,     0.000000000000000 ]
    - [     0.000000000000000,     0.000000000000000,    -0.396993788588687 ]
  - # (2, 2)
    - [    -0.396993788588686,    -0.000000000000000,    -0.000000000000000 ]
    - [     0.000000000000000,    -0.396993788588687,     0.000000000000000 ]
    - [     0.000000000000000,     0.000000000000000,    -0.396993788588687 ]
  - # (2, 3)
    - [     1.275593763202842,     0.000000000000000,     0.000000000000000 ]
    - [    -0.000000000000000,     1.275593763202842,    -0.000000000000000 ]
    - [    -0.000000000000000,    -0.000000000000000,     1.275593763202842 ]
  - # (2, 4)
    - [    -0.481604771811906,    -0.000000000000000,    -0.000000000000000 ]
    - [     0.000000000000000,    -0.481604771811906,     0.000000000000000 ]
    - [     0.000000000000000,     0.000000000000000,    -0.481604771811906 ]