<?xml version="1.0" encoding="ISO-8859-1"?>
<modeling>
 <generator>
  <i name="program" type="string">vasp </i>
  <i name="version" type="string">6.4.3  </i>
  <i name="subversion" type="string">19Mar24 (build Jun 20 2024 15:56:09) complex                          parallel </i>
  <i name="platform" type="string">LinuxNV_CrayMPICH </i>
  <i name="date" type="string">2025 01 13 </i>
  <i name="time" type="string">17:58:04 </i>
 </generator>
 <incar>
  <i type="string" name="PREC">Accurate</i>
  <i type="int" name="IBRION">    -1</i>
  <i name="EDIFF">      0.00000001</i>
  <i type="int" name="NSW">     0</i>
  <i name="ENCUT">    500.00000000</i>
  <i type="logical" name="LREAL"> F  </i>
  <i type="int" name="ISMEAR">     0</i>
  <i name="SIGMA">      0.01000000</i>
  <i type="logical" name="LWAVE"> F  </i>
  <i type="logical" name="LCHARG"> F  </i>
 </incar>
 <primitive_cell>
  <structure name="primitive_cell" >
   <crystal>
    <varray name="basis" >
     <v>       0.00000000       0.00000000     -10.88740475 </v>
     <v>      -2.72185119       2.72185119      -0.00000000 </v>
     <v>       2.72185119       2.72185119       0.00000000 </v>
    </varray>
    <i name="volume">    161.31810740 </i>
    <varray name="rec_basis" >
     <v>       0.00000000      -0.00000000      -0.09184925 </v>
     <v>      -0.18369851       0.18369851       0.00000000 </v>
     <v>       0.18369851       0.18369851       0.00000000 </v>
    </varray>
   </crystal>
   <varray name="positions" >
    <v>       0.00086596       0.00086596       1.00000000 </v>
    <v>       0.75000000       0.50000000       0.50000000 </v>
    <v>       0.50000000       1.00000000       0.00000000 </v>
    <v>       0.25000000       0.50000000       0.50000000 </v>
    <v>       0.87500000       1.00000000       0.50000000 </v>
    <v>       0.62500000       0.50000000       1.00000000 </v>
    <v>       0.37500000       1.00000000       0.50000000 </v>
    <v>       0.12500000       0.50000000       1.00000000 </v>
   </varray>
  </structure>
  <varray name="primitive_index" >
   <v type="int" >        1 </v>
   <v type="int" >        2 </v>
   <v type="int" >        3 </v>
   <v type="int" >        4 </v>
   <v type="int" >        5 </v>
   <v type="int" >        6 </v>
   <v type="int" >        7 </v>
   <v type="int" >        8 </v>
  </varray>
 </primitive_cell>
 <kpoints>
  <generation param="Gamma">
   <v type="int" name="divisions">       4       11       11 </v>
   <v name="usershift">      0.00000000       0.00000000       0.00000000 </v>
   <v name="genvec1">      0.25000000      -0.00000000       0.00000000 </v>
   <v name="genvec2">     -0.00000000       0.09090909       0.00000000 </v>
   <v name="genvec3">     -0.00000000       0.00000000       0.09090909 </v>
   <v name="shift">      0.00000000       0.00000000       0.00000000 </v>
  </generation>
  <varray name="kpointlist" >
   <v>       0.00000000       0.00000000       0.00000000 </v>
   <v>       0.25000000       0.00000000       0.00000000 </v>
   <v>       0.50000000       0.00000000       0.00000000 </v>
   <v>       0.00000000       0.09090909       0.00000000 </v>
   <v>       0.00000000       0.00000000       0.09090909 </v>
   <v>       0.25000000       0.09090909       0.00000000 </v>
   <v>       0.25000000       0.00000000       0.09090909 </v>
   <v>       0.25000000      -0.09090909       0.00000000 </v>
   <v>       0.50000000       0.09090909       0.00000000 </v>
   <v>       0.50000000       0.00000000       0.09090909 </v>
   <v>       0.00000000       0.18181818       0.00000000 </v>
   <v>       0.00000000       0.00000000       0.18181818 </v>
   <v>       0.25000000       0.18181818       0.00000000 </v>
   <v>       0.25000000       0.00000000       0.18181818 </v>
   <v>       0.25000000      -0.18181818       0.00000000 </v>
   <v>       0.50000000       0.18181818       0.00000000 </v>
   <v>       0.50000000       0.00000000       0.18181818 </v>
   <v>       0.00000000       0.27272727       0.00000000 </v>
   <v>       0.00000000       0.00000000       0.27272727 </v>
   <v>       0.25000000       0.27272727       0.00000000 </v>
   <v>       0.25000000       0.00000000       0.27272727 </v>
   <v>       0.25000000      -0.27272727       0.00000000 </v>
   <v>       0.50000000       0.27272727       0.00000000 </v>
   <v>       0.50000000       0.00000000       0.27272727 </v>
   <v>       0.00000000       0.36363636       0.00000000 </v>
   <v>       0.00000000       0.00000000       0.36363636 </v>
   <v>       0.25000000       0.36363636       0.00000000 </v>
   <v>       0.25000000       0.00000000       0.36363636 </v>
   <v>       0.25000000      -0.36363636       0.00000000 </v>
   <v>       0.50000000       0.36363636       0.00000000 </v>
   <v>       0.50000000       0.00000000       0.36363636 </v>
   <v>       0.00000000       0.45454545       0.00000000 </v>
   <v>       0.00000000       0.00000000       0.45454545 </v>
   <v>       0.25000000       0.45454545       0.00000000 </v>
   <v>       0.25000000       0.00000000       0.45454545 </v>
   <v>       0.25000000      -0.45454545       0.00000000 </v>
   <v>       0.50000000       0.45454545       0.00000000 </v>
   <v>       0.50000000       0.00000000       0.45454545 </v>
   <v>       0.00000000       0.09090909       0.09090909 </v>
   <v>       0.25000000       0.09090909       0.09090909 </v>
   <v>       0.25000000      -0.09090909       0.09090909 </v>
   <v>       0.50000000       0.09090909       0.09090909 </v>
   <v>       0.00000000       0.18181818       0.09090909 </v>
   <v>       0.00000000      -0.09090909       0.18181818 </v>
   <v>       0.25000000       0.18181818       0.09090909 </v>
   <v>       0.25000000      -0.09090909       0.18181818 </v>
   <v>       0.25000000      -0.18181818      -0.09090909 </v>
   <v>       0.25000000       0.09090909      -0.18181818 </v>
   <v>       0.50000000       0.18181818       0.09090909 </v>
   <v>       0.50000000      -0.09090909       0.18181818 </v>
   <v>       0.00000000       0.27272727       0.09090909 </v>
   <v>       0.00000000      -0.09090909       0.27272727 </v>
   <v>       0.25000000       0.27272727       0.09090909 </v>
   <v>       0.25000000      -0.09090909       0.27272727 </v>
   <v>       0.25000000      -0.27272727      -0.09090909 </v>
   <v>       0.25000000       0.09090909      -0.27272727 </v>
   <v>       0.50000000       0.27272727       0.09090909 </v>
   <v>       0.50000000      -0.09090909       0.27272727 </v>
   <v>       0.00000000       0.36363636       0.09090909 </v>
   <v>       0.00000000      -0.09090909       0.36363636 </v>
   <v>       0.25000000       0.36363636       0.09090909 </v>
   <v>       0.25000000      -0.09090909       0.36363636 </v>
   <v>       0.25000000      -0.36363636      -0.09090909 </v>
   <v>       0.25000000       0.09090909      -0.36363636 </v>
   <v>       0.50000000       0.36363636       0.09090909 </v>
   <v>       0.50000000      -0.09090909       0.36363636 </v>
   <v>       0.00000000       0.45454545       0.09090909 </v>
   <v>       0.00000000      -0.09090909       0.45454545 </v>
   <v>       0.25000000       0.45454545       0.09090909 </v>
   <v>       0.25000000      -0.09090909       0.45454545 </v>
   <v>       0.25000000      -0.45454545      -0.09090909 </v>
   <v>       0.25000000       0.09090909      -0.45454545 </v>
   <v>       0.50000000       0.45454545       0.09090909 </v>
   <v>       0.50000000      -0.09090909       0.45454545 </v>
   <v>       0.00000000       0.18181818       0.18181818 </v>
   <v>       0.25000000       0.18181818       0.18181818 </v>
   <v>       0.25000000      -0.18181818       0.18181818 </v>
   <v>       0.50000000       0.18181818       0.18181818 </v>
   <v>       0.00000000       0.27272727       0.18181818 </v>
   <v>       0.00000000      -0.18181818       0.27272727 </v>
   <v>       0.25000000       0.27272727       0.18181818 </v>
   <v>       0.25000000      -0.18181818       0.27272727 </v>
   <v>       0.25000000      -0.27272727      -0.18181818 </v>
   <v>       0.25000000       0.18181818      -0.27272727 </v>
   <v>       0.50000000       0.27272727       0.18181818 </v>
   <v>       0.50000000      -0.18181818       0.27272727 </v>
   <v>       0.00000000       0.36363636       0.18181818 </v>
   <v>       0.00000000      -0.18181818       0.36363636 </v>
   <v>       0.25000000       0.36363636       0.18181818 </v>
   <v>       0.25000000      -0.18181818       0.36363636 </v>
   <v>       0.25000000      -0.36363636      -0.18181818 </v>
   <v>       0.25000000       0.18181818      -0.36363636 </v>
   <v>       0.50000000       0.36363636       0.18181818 </v>
   <v>       0.50000000      -0.18181818       0.36363636 </v>
   <v>       0.00000000       0.45454545       0.18181818 </v>
   <v>       0.00000000      -0.18181818       0.45454545 </v>
   <v>       0.25000000       0.45454545       0.18181818 </v>
   <v>       0.25000000      -0.18181818       0.45454545 </v>
   <v>       0.25000000      -0.45454545      -0.18181818 </v>
   <v>       0.25000000       0.18181818      -0.45454545 </v>
   <v>       0.50000000       0.45454545       0.18181818 </v>
   <v>       0.50000000      -0.18181818       0.45454545 </v>
   <v>       0.00000000       0.27272727       0.27272727 </v>
   <v>       0.25000000       0.27272727       0.27272727 </v>
   <v>       0.25000000      -0.27272727       0.27272727 </v>
   <v>       0.50000000       0.27272727       0.27272727 </v>
   <v>       0.00000000       0.36363636       0.27272727 </v>
   <v>       0.00000000      -0.27272727       0.36363636 </v>
   <v>       0.25000000       0.36363636       0.27272727 </v>
   <v>       0.25000000      -0.27272727       0.36363636 </v>
   <v>       0.25000000      -0.36363636      -0.27272727 </v>
   <v>       0.25000000       0.27272727      -0.36363636 </v>
   <v>       0.50000000       0.36363636       0.27272727 </v>
   <v>       0.50000000      -0.27272727       0.36363636 </v>
   <v>       0.00000000       0.45454545       0.27272727 </v>
   <v>       0.00000000      -0.27272727       0.45454545 </v>
   <v>       0.25000000       0.45454545       0.27272727 </v>
   <v>       0.25000000      -0.27272727       0.45454545 </v>
   <v>       0.25000000      -0.45454545      -0.27272727 </v>
   <v>       0.25000000       0.27272727      -0.45454545 </v>
   <v>       0.50000000       0.45454545       0.27272727 </v>
   <v>       0.50000000      -0.27272727       0.45454545 </v>
   <v>       0.00000000       0.36363636       0.36363636 </v>
   <v>       0.25000000       0.36363636       0.36363636 </v>
   <v>       0.25000000      -0.36363636       0.36363636 </v>
   <v>       0.50000000       0.36363636       0.36363636 </v>
   <v>       0.00000000       0.45454545       0.36363636 </v>
   <v>       0.00000000      -0.36363636       0.45454545 </v>
   <v>       0.25000000       0.45454545       0.36363636 </v>
   <v>       0.25000000      -0.36363636       0.45454545 </v>
   <v>       0.25000000      -0.45454545      -0.36363636 </v>
   <v>       0.25000000       0.36363636      -0.45454545 </v>
   <v>       0.50000000       0.45454545       0.36363636 </v>
   <v>       0.50000000      -0.36363636       0.45454545 </v>
   <v>       0.00000000       0.45454545       0.45454545 </v>
   <v>       0.25000000       0.45454545       0.45454545 </v>
   <v>       0.25000000      -0.45454545       0.45454545 </v>
   <v>       0.50000000       0.45454545       0.45454545 </v>
  </varray>
  <varray name="weights" >
   <v>       0.00206612 </v>
   <v>       0.00413223 </v>
   <v>       0.00206612 </v>
   <v>       0.00413223 </v>
   <v>       0.00413223 </v>
   <v>       0.00413223 </v>
   <v>       0.00826446 </v>
   <v>       0.00413223 </v>
   <v>       0.00413223 </v>
   <v>       0.00413223 </v>
   <v>       0.00413223 </v>
   <v>       0.00413223 </v>
   <v>       0.00413223 </v>
   <v>       0.00826446 </v>
   <v>       0.00413223 </v>
   <v>       0.00413223 </v>
   <v>       0.00413223 </v>
   <v>       0.00413223 </v>
   <v>       0.00413223 </v>
   <v>       0.00413223 </v>
   <v>       0.00826446 </v>
   <v>       0.00413223 </v>
   <v>       0.00413223 </v>
   <v>       0.00413223 </v>
   <v>       0.00413223 </v>
   <v>       0.00413223 </v>
   <v>       0.00413223 </v>
   <v>       0.00826446 </v>
   <v>       0.00413223 </v>
   <v>       0.00413223 </v>
   <v>       0.00413223 </v>
   <v>       0.00413223 </v>
   <v>       0.00413223 </v>
   <v>       0.00413223 </v>
   <v>       0.00826446 </v>
   <v>       0.00413223 </v>
   <v>       0.00413223 </v>
   <v>       0.00413223 </v>
   <v>       0.00826446 </v>
   <v>       0.00826446 </v>
   <v>       0.00826446 </v>
   <v>       0.00826446 </v>
   <v>       0.00826446 </v>
   <v>       0.00826446 </v>
   <v>       0.00826446 </v>
   <v>       0.00826446 </v>
   <v>       0.00826446 </v>
   <v>       0.00826446 </v>
   <v>       0.00826446 </v>
   <v>       0.00826446 </v>
   <v>       0.00826446 </v>
   <v>       0.00826446 </v>
   <v>       0.00826446 </v>
   <v>       0.00826446 </v>
   <v>       0.00826446 </v>
   <v>       0.00826446 </v>
   <v>       0.00826446 </v>
   <v>       0.00826446 </v>
   <v>       0.00826446 </v>
   <v>       0.00826446 </v>
   <v>       0.00826446 </v>
   <v>       0.00826446 </v>
   <v>       0.00826446 </v>
   <v>       0.00826446 </v>
   <v>       0.00826446 </v>
   <v>       0.00826446 </v>
   <v>       0.00826446 </v>
   <v>       0.00826446 </v>
   <v>       0.00826446 </v>
   <v>       0.00826446 </v>
   <v>       0.00826446 </v>
   <v>       0.00826446 </v>
   <v>       0.00826446 </v>
   <v>       0.00826446 </v>
   <v>       0.00826446 </v>
   <v>       0.00826446 </v>
   <v>       0.00826446 </v>
   <v>       0.00826446 </v>
   <v>       0.00826446 </v>
   <v>       0.00826446 </v>
   <v>       0.00826446 </v>
   <v>       0.00826446 </v>
   <v>       0.00826446 </v>
   <v>       0.00826446 </v>
   <v>       0.00826446 </v>
   <v>       0.00826446 </v>
   <v>       0.00826446 </v>
   <v>       0.00826446 </v>
   <v>       0.00826446 </v>
   <v>       0.00826446 </v>
   <v>       0.00826446 </v>
   <v>       0.00826446 </v>
   <v>       0.00826446 </v>
   <v>       0.00826446 </v>
   <v>       0.00826446 </v>
   <v>       0.00826446 </v>
   <v>       0.00826446 </v>
   <v>       0.00826446 </v>
   <v>       0.00826446 </v>
   <v>       0.00826446 </v>
   <v>       0.00826446 </v>
   <v>       0.00826446 </v>
   <v>       0.00826446 </v>
   <v>       0.00826446 </v>
   <v>       0.00826446 </v>
   <v>       0.00826446 </v>
   <v>       0.00826446 </v>
   <v>       0.00826446 </v>
   <v>       0.00826446 </v>
   <v>       0.00826446 </v>
   <v>       0.00826446 </v>
   <v>       0.00826446 </v>
   <v>       0.00826446 </v>
   <v>       0.00826446 </v>
   <v>       0.00826446 </v>
   <v>       0.00826446 </v>
   <v>       0.00826446 </v>
   <v>       0.00826446 </v>
   <v>       0.00826446 </v>
   <v>       0.00826446 </v>
   <v>       0.00826446 </v>
   <v>       0.00826446 </v>
   <v>       0.00826446 </v>
   <v>       0.00826446 </v>
   <v>       0.00826446 </v>
   <v>       0.00826446 </v>
   <v>       0.00826446 </v>
   <v>       0.00826446 </v>
   <v>       0.00826446 </v>
   <v>       0.00826446 </v>
   <v>       0.00826446 </v>
   <v>       0.00826446 </v>
   <v>       0.00826446 </v>
   <v>       0.00826446 </v>
   <v>       0.00826446 </v>
   <v>       0.00826446 </v>
   <v>       0.00826446 </v>
   <v>       0.00826446 </v>
  </varray>
 </kpoints>
 <parameters>
  <separator name="general" >
   <i type="string" name="SYSTEM">unknown system</i>
   <i type="logical" name="LCOMPAT"> F  </i>
  </separator>
  <separator name="electronic" >
   <i type="string" name="PREC">accura</i>
   <i name="ENMAX">    500.00000000</i>
   <i name="ENAUG">    322.06900000</i>
   <i name="EDIFF">      0.00000001</i>
   <i type="int" name="IALGO">    38</i>
   <i type="int" name="IWAVPR">    10</i>
   <i type="int" name="NBANDS">    24</i>
   <i type="int" name="NBANDSLOW">    -1</i>
   <i type="int" name="NBANDSHIGH">    -1</i>
   <i name="NELECT">     32.00000000</i>
   <i type="int" name="TURBO">     0</i>
   <i type="int" name="IRESTART">     0</i>
   <i type="int" name="NREBOOT">     0</i>
   <i type="int" name="NMIN">     0</i>
   <i name="EREF">      0.00000000</i>
   <separator name="electronic smearing" >
    <i type="int" name="ISMEAR">     0</i>
    <i name="SIGMA">      0.01000000</i>
    <i name="KSPACING">      0.50000000</i>
    <i type="logical" name="KGAMMA"> T  </i>
    <i type="logical" name="KBLOWUP"> T  </i>
   </separator>
   <separator name="electronic projectors" >
    <i type="logical" name="LREAL"> F  </i>
    <v name="ROPT">      0.00000000</v>
    <i type="int" name="LMAXPAW">  -100</i>
    <i type="int" name="LMAXMIX">     2</i>
    <i type="logical" name="NLSPLINE"> F  </i>
   </separator>
   <separator name="electronic startup" >
    <i type="int" name="ISTART">     0</i>
    <i type="int" name="ICHARG">     2</i>
    <i type="int" name="INIWAV">     1</i>
   </separator>
   <separator name="electronic spin" >
    <i type="int" name="ISPIN">     1</i>
    <i type="logical" name="LNONCOLLINEAR"> F  </i>
    <v name="MAGMOM">      1.00000000      1.00000000      1.00000000      1.00000000      1.00000000      1.00000000      1.00000000      1.00000000</v>
    <i name="NUPDOWN">     -1.00000000</i>
    <i type="logical" name="LSORBIT"> F  </i>
    <v name="SAXIS">      0.00000000      0.00000000      1.00000000</v>
    <i type="logical" name="LSPIRAL"> F  </i>
    <v name="QSPIRAL">      0.00000000      0.00000000      0.00000000</v>
    <i type="logical" name="LZEROZ"> F  </i>
   </separator>
   <separator name="electronic exchange-correlation" >
    <i type="logical" name="LASPH"> F  </i>
   </separator>
   <separator name="electronic convergence" >
    <i type="int" name="NELM">    60</i>
    <i type="int" name="NELMDL">    -5</i>
    <i type="int" name="NELMIN">     2</i>
    <i name="ENINI">    500.00000000</i>
    <separator name="electronic convergence detail" >
     <i type="logical" name="LDIAG"> T  </i>
     <i type="logical" name="LSUBROT"> F  </i>
     <i name="WEIMIN">      0.00000000</i>
     <i name="EBREAK">      0.00000000</i>
     <i name="DEPER">      0.30000000</i>
     <i type="int" name="NRMM">     4</i>
     <i name="TIME">      0.40000000</i>
    </separator>
   </separator>
   <separator name="electronic mixer" >
    <i name="AMIX">      0.40000000</i>
    <i name="BMIX">      1.00000000</i>
    <i name="AMIN">      0.10000000</i>
    <i name="AMIX_MAG">      1.60000000</i>
    <i name="BMIX_MAG">      1.00000000</i>
    <separator name="electronic mixer details" >
     <i type="int" name="IMIX">     4</i>
     <i type="logical" name="MIXFIRST"> F  </i>
     <i type="int" name="MAXMIX">   -45</i>
     <i name="WC">    100.00000000</i>
     <i type="int" name="INIMIX">     1</i>
     <i type="int" name="MIXPRE">     1</i>
     <i type="int" name="MREMOVE">     5</i>
    </separator>
   </separator>
   <separator name="electronic dipolcorrection" >
    <i type="logical" name="LDIPOL"> F  </i>
    <i type="logical" name="LMONO"> F  </i>
    <i type="int" name="IDIPOL">     0</i>
    <i name="EPSILON">      1.00000000</i>
    <v name="DIPOL">   -100.00000000   -100.00000000   -100.00000000</v>
    <i name="EFIELD">      0.00000000</i>
    <i type="logical" name="LVACPOTAV"> F  </i>
   </separator>
  </separator>
  <separator name="grids" >
   <i type="int" name="NGX">    80</i>
   <i type="int" name="NGY">    28</i>
   <i type="int" name="NGZ">    28</i>
   <i type="int" name="NGXF">   160</i>
   <i type="int" name="NGYF">    56</i>
   <i type="int" name="NGZF">    56</i>
   <i type="logical" name="ADDGRID"> F  </i>
  </separator>
  <separator name="ionic" >
   <i type="int" name="NSW">     0</i>
   <i type="int" name="IBRION">    -1</i>
   <i type="int" name="MDALGO">     0</i>
   <i type="int" name="ISIF">     2</i>
   <i name="PSTRESS">      0.00000000</i>
   <i name="EDIFFG">      0.00000010</i>
   <i type="int" name="NFREE">     0</i>
   <i name="POTIM">      0.50000000</i>
   <i name="SMASS">     -3.00000000</i>
   <i name="SCALEE">      1.00000000</i>
  </separator>
  <separator name="ionic md" >
   <i name="TEBEG">      0.00010000</i>
   <i name="TEEND">      0.00010000</i>
   <i type="int" name="NBLOCK">     1</i>
   <i type="int" name="KBLOCK">     1</i>
   <i type="int" name="NPACO">   256</i>
   <i name="APACO">     10.00000000</i>
  </separator>
  <separator name="symmetry" >
   <i type="int" name="ISYM">     2</i>
   <i name="SYMPREC">      0.00001000</i>
  </separator>
  <separator name="dos" >
   <i type="int" name="LORBIT">     0</i>
   <v name="RWIGS">     -1.00000000</v>
   <i type="int" name="NEDOS">   301</i>
   <i name="EMIN">     10.00000000</i>
   <i name="EMAX">    -10.00000000</i>
   <i name="EFERMI">      0.00000000</i>
  </separator>
  <separator name="writing" >
   <i type="int" name="NWRITE">     2</i>
   <i type="logical" name="LWAVE"> F  </i>
   <i type="logical" name="LDOWNSAMPLE"> F  </i>
   <i type="logical" name="LCHARG"> F  </i>
   <i type="logical" name="LPARD"> F  </i>
   <i type="logical" name="LVTOT"> F  </i>
   <i type="logical" name="LVHAR"> F  </i>
   <i type="logical" name="LELF"> F  </i>
   <i type="logical" name="LOPTICS"> F  </i>
   <v name="STM">      0.00000000      0.00000000      0.00000000      0.00000000      0.00000000      0.00000000      0.00000000</v>
  </separator>
  <separator name="performance" >
   <i type="int" name="NPAR">     8</i>
   <i type="int" name="NSIM">     4</i>
   <i type="int" name="NBLK">    -1</i>
   <i type="logical" name="LPLANE"> T  </i>
   <i type="logical" name="LSCALAPACK"> T  </i>
   <i type="logical" name="LSCAAWARE"> F  </i>
   <i type="logical" name="LSCALU"> F  </i>
   <i type="logical" name="LASYNC"> F  </i>
   <i type="logical" name="LORBITALREAL"> F  </i>
  </separator>
  <separator name="miscellaneous" >
   <i type="int" name="IDIOT">     3</i>
   <i type="int" name="PHON_NSTRUCT">    -1</i>
   <i type="logical" name="LMUSIC"> F  </i>
   <v name="POMASS">     28.08500000</v>
   <v name="DARWINR">      0.00000000</v>
   <v name="DARWINV">      1.00000000</v>
   <i type="logical" name="LCORR"> T  </i>
  </separator>
  <i type="logical" name="GGA_COMPAT"> T  </i>
  <i type="logical" name="LBERRY"> F  </i>
  <i type="int" name="ICORELEVEL">     0</i>
  <i type="logical" name="LDAU"> F  </i>
  <i type="int" name="I_CONSTRAINED_M">     0</i>
  <separator name="electronic exchange-correlation" >
   <i type="string" name="GGA    ">PE</i>
   <i type="string" name="XC_C">1</i>
   <i type="int" name="VOSKOWN">     0</i>
   <i type="logical" name="LHFCALC"> F  </i>
   <i type="string" name="PRECFOCK"></i>
   <i type="logical" name="LSYMGRAD"> F  </i>
   <i type="logical" name="LHFONE"> F  </i>
   <i type="logical" name="LRHFCALC"> F  </i>
   <i type="logical" name="LTHOMAS"> F  </i>
   <i type="logical" name="LMODELHF"> F  </i>
   <i type="logical" name="LFOCKACE"> F  </i>
   <i name="ENCUT4O">     -1.00000000</i>
   <i type="int" name="EXXOEP">     0</i>
   <i type="int" name="FOURORBIT">     0</i>
   <i name="AEXX">      0.00000000</i>
   <i name="HFALPHA">      0.00000000</i>
   <i name="MCALPHA">      0.00000000</i>
   <i name="ALDAX">      1.00000000</i>
   <i name="AGGAX">      1.00000000</i>
   <i name="AMGGAX">      1.00000000</i>
   <i name="ALDAC">      1.00000000</i>
   <i name="AGGAC">      1.00000000</i>
   <i name="AMGGAC">      1.00000000</i>
   <i type="int" name="NKREDX">     1</i>
   <i type="int" name="NKREDY">     1</i>
   <i type="int" name="NKREDZ">     1</i>
   <i type="logical" name="SHIFTRED"> F  </i>
   <i type="logical" name="ODDONLY"> F  </i>
   <i type="logical" name="EVENONLY"> F  </i>
   <i type="int" name="LMAXFOCK">     0</i>
   <i type="int" name="NMAXFOCKAE">     0</i>
   <i type="logical" name="LFOCKAEDFT"> F  </i>
   <i name="HFSCREEN">      0.00000000</i>
   <i name="HFSCREENC">      0.00000000</i>
   <i type="int" name="NBANDSGWLOW">     0</i>
  </separator>
  <separator name="vdW DFT" >
   <i type="logical" name="LUSE_VDW"> F  </i>
   <i type="int" name="IVDW_NL">    -1</i>
   <i type="logical" name="LSPIN_VDW"> F  </i>
   <i name="ZAB_VDW">     -0.84910000</i>
   <i name="GAMMA_VDW">      1.39626340</i>
   <i name="ALPHA_VDW">      0.00000000</i>
   <i name="PARAM1">      0.12340000</i>
   <i name="PARAM2">      1.00000000</i>
   <i name="BPARAM">      6.30000000</i>
   <i name="CPARAM">      0.00930000</i>
  </separator>
  <separator name="model GW" >
   <i type="int" name="MODEL_GW">     0</i>
   <i name="MODEL_EPS0">     12.09885805</i>
   <i name="MODEL_ALPHA">      1.00000000</i>
  </separator>
  <separator name="linear response parameters" >
   <i type="logical" name="LEPSILON"> F  </i>
   <i type="logical" name="LRPA"> F  </i>
   <i type="logical" name="LNABLA"> F  </i>
   <i type="logical" name="LVEL"> F  </i>
   <i name="CSHIFT">      0.10000000</i>
   <i name="OMEGAMAX">     -1.00000000</i>
   <i name="DEG_THRESHOLD">      0.00200000</i>
   <i name="RTIME">     -0.10000000</i>
   <i name="WPLASMAI">      0.00000000</i>
   <v name="DFIELD">      0.00000000      0.00000000      0.00000000</v>
   <v name="WPLASMA">      0.00000000      0.00000000      0.00000000      0.00000000      0.00000000      0.00000000      0.00000000      0.00000000      0.00000000</v>
  </separator>
  <separator name="orbital magnetization" >
   <i type="logical" name="NUCIND"> F  </i>
   <v name="MAGPOS">      0.00000000      0.00000000      0.00000000</v>
   <i type="logical" name="LNICSALL"> T  </i>
   <i type="logical" name="ORBITALMAG"> F  </i>
   <i type="logical" name="LMAGBLOCH"> F  </i>
   <i type="logical" name="LCHIMAG"> F  </i>
   <i type="logical" name="LGAUGE"> T  </i>
   <i type="int" name="MAGATOM">     0</i>
   <v name="MAGDIPOL">      0.00000000      0.00000000      0.00000000</v>
   <v name="AVECCONST">      0.00000000      0.00000000      0.00000000</v>
  </separator>
  <separator name="response functions" >
   <i type="logical" name="LALL_IN_ONE"> F  </i>
   <i type="int" name="IALL_IN_ONE">    -1</i>
   <i type="int" name="NBANDS_WAVE">    -1</i>
   <i type="logical" name="LFINITE_TEMPERATURE"> F  </i>
   <i type="logical" name="LADDER"> F  </i>
   <i type="logical" name="LRPAFORCE"> F  </i>
   <i type="logical" name="LFXC"> F  </i>
   <i type="logical" name="LHARTREE"> T  </i>
   <i type="int" name="IBSE">     0</i>
   <v type="int" name="KPOINT">    -1     0     0     0</v>
   <i type="logical" name="LTCTC"> F  </i>
   <i type="logical" name="LTCTE"> F  </i>
   <i type="logical" name="LTETE"> F  </i>
   <i type="logical" name="LTRIPLET"> F  </i>
   <i type="logical" name="LFXCEPS"> F  </i>
   <i type="logical" name="LFXHEG"> F  </i>
   <i type="int" name="NATURALO">     2</i>
   <i type="logical" name="LHOLEGF"> F  </i>
   <i type="logical" name="L2ORDER"> F  </i>
   <i type="logical" name="LDMP1"> F  </i>
   <i type="logical" name="LMP2LT"> F  </i>
   <i type="logical" name="LSMP2LT"> F  </i>
   <i type="logical" name="LGWLF"> F  </i>
   <i name="ENCUTGW">     -1.60000002</i>
   <i name="ENCUTGWSOFT">     -1.60000002</i>
   <i name="ENCUTLF">     -1.00000000</i>
   <i type="logical" name="ESF_SPLINES"> F  </i>
   <i name="ESF_CONV">      0.01000000</i>
   <i type="int" name="ESF_NINTER">    15</i>
   <i type="int" name="LMAXMP2">    -1</i>
   <i name="SCISSOR">      0.00000000</i>
   <i type="int" name="NOMEGA">     0</i>
   <i type="int" name="NOMEGAR">     0</i>
   <i type="int" name="NBANDSGW">    -1</i>
   <i type="int" name="NBANDSO">    -1</i>
   <i type="int" name="NBANDSV">    -1</i>
   <i type="int" name="NELMGW">     1</i>
   <i type="int" name="NELMHF">     1</i>
   <i type="int" name="DIM">     3</i>
   <i type="int" name="IESPILON">     4</i>
   <i type="int" name="ANTIRES">     0</i>
   <i name="OMEGAMAX">    -30.00000000</i>
   <i name="OMEGAMIN">    -30.00000000</i>
   <i name="OMEGATL">   -200.00000000</i>
   <i type="int" name="OMEGAGRID">     0</i>
   <i name="CSHIFT">     -0.10000000</i>
   <i type="logical" name="LSELFENERGY"> F  </i>
   <i type="logical" name="LSPECTRAL"> F  </i>
   <i type="logical" name="LSPECTRALGW"> F  </i>
   <i type="logical" name="LSINGLES"> F  </i>
   <i type="logical" name="LFERMIGW"> F  </i>
   <i type="logical" name="ODDONLYGW"> F  </i>
   <i type="logical" name="EVENONLYGW"> F  </i>
   <i type="int" name="NKREDLFX">     1</i>
   <i type="int" name="NKREDLFY">     1</i>
   <i type="int" name="NKREDLFZ">     1</i>
   <i type="int" name="MAXMEM">  2800</i>
   <i type="int" name="TELESCOPE">     0</i>
   <i type="int" name="NTAUPAR">    -1</i>
   <i type="int" name="NOMEGAPAR">    -1</i>
   <i name="DAMP_NEWTON">      0.80000001</i>
   <i name="LAMBDA">      1.00000000</i>
  </separator>
  <separator name="External order field" >
   <i name="OFIELD_KAPPA">      0.00000000</i>
   <v name="OFIELD_K">      0.00000000      0.00000000      0.00000000</v>
   <i name="OFIELD_Q6_NEAR">      0.00000000</i>
   <i name="OFIELD_Q6_FAR">      0.00000000</i>
   <i name="OFIELD_A">      0.00000000</i>
  </separator>
  <separator name="optional k-points parameters" >
   <i type="int" name="KPOINTS_OPT_MODE">     1</i>
   <i type="logical" name="LKPOINTS_OPT"> F  </i>
  </separator>
 </parameters>
 <atominfo>
  <atoms>       8 </atoms>
  <types>       1 </types>
  <array name="atoms" >
   <dimension dim="1">ion</dimension>
   <field type="string">element</field>
   <field type="int">atomtype</field>
   <set>
    <rc><c>Si</c><c>   1</c></rc>
    <rc><c>Si</c><c>   1</c></rc>
    <rc><c>Si</c><c>   1</c></rc>
    <rc><c>Si</c><c>   1</c></rc>
    <rc><c>Si</c><c>   1</c></rc>
    <rc><c>Si</c><c>   1</c></rc>
    <rc><c>Si</c><c>   1</c></rc>
    <rc><c>Si</c><c>   1</c></rc>
   </set>
  </array>
  <array name="atomtypes" >
   <dimension dim="1">type</dimension>
   <field type="int">atomspertype</field>
   <field type="string">element</field>
   <field>mass</field>
   <field>valence</field>
   <field type="string">pseudopotential</field>
   <set>
    <rc><c>   8</c><c>Si</c><c>     28.08500000</c><c>      4.00000000</c><c>  PAW_PBE Si 05Jan2001                  </c></rc>
   </set>
  </array>
 </atominfo>
 <structure name="initialpos" >
  <crystal>
   <varray name="basis" >
    <v>       0.00000000       0.00000000     -10.88740475 </v>
    <v>      -2.72185119       2.72185119      -0.00000000 </v>
    <v>       2.72185119       2.72185119       0.00000000 </v>
   </varray>
   <i name="volume">    161.31810740 </i>
   <varray name="rec_basis" >
    <v>       0.00000000      -0.00000000      -0.09184925 </v>
    <v>      -0.18369851       0.18369851       0.00000000 </v>
    <v>       0.18369851       0.18369851       0.00000000 </v>
   </varray>
  </crystal>
  <varray name="positions" >
   <v>       0.00086596       0.00086596       0.00000000 </v>
   <v>       0.75000000       0.50000000       0.50000000 </v>
   <v>       0.50000000       0.00000000       0.00000000 </v>
   <v>       0.25000000       0.50000000       0.50000000 </v>
   <v>       0.87500000       0.00000000       0.50000000 </v>
   <v>       0.62500000       0.50000000       0.00000000 </v>
   <v>       0.37500000       0.00000000       0.50000000 </v>
   <v>       0.12500000       0.50000000       0.00000000 </v>
  </varray>
 </structure>
 <calculation>
  <scstep>
   <time name="dav">    0.70    0.70</time>
   <time name="total">    0.72    0.72</time>
   <energy>
    <i name="alphaZ">     13.35522965 </i>
    <i name="ewald">   -911.94973844 </i>
    <i name="hartreedc">    -44.46140217 </i>
    <i name="XCdc">    -74.52612306 </i>
    <i name="pawpsdc">    704.99039692 </i>
    <i name="pawaedc">   -564.24414232 </i>
    <i name="eentropy">     -0.00018521 </i>
    <i name="bandstr">    119.69041354 </i>
    <i name="atom">    824.53005375 </i>
    <i name="e_fr_energy">     67.38450266 </i>
    <i name="e_wo_entrp">     67.38468787 </i>
    <i name="e_0_energy">     67.38459526 </i>
   </energy>
  </scstep>
  <scstep>
   <time name="dav">    0.83    0.83</time>
   <time name="total">    0.83    0.83</time>
   <energy>
    <i name="e_fr_energy">    -38.96018248 </i>
    <i name="e_wo_entrp">    -38.96018248 </i>
    <i name="e_0_energy">    -38.96018248 </i>
   </energy>
  </scstep>
  <scstep>
   <time name="dav">    0.84    0.84</time>
   <time name="total">    0.84    0.84</time>
   <energy>
    <i name="e_fr_energy">    -44.00266081 </i>
    <i name="e_wo_entrp">    -44.00266081 </i>
    <i name="e_0_energy">    -44.00266081 </i>
   </energy>
  </scstep>
  <scstep>
   <time name="dav">    0.80    0.80</time>
   <time name="total">    0.80    0.80</time>
   <energy>
    <i name="e_fr_energy">    -44.09098167 </i>
    <i name="e_wo_entrp">    -44.09098167 </i>
    <i name="e_0_energy">    -44.09098167 </i>
   </energy>
  </scstep>
  <scstep>
   <time name="dav">    0.83    0.84</time>
   <time name="total">    0.87    0.87</time>
   <energy>
    <i name="e_fr_energy">    -44.09324156 </i>
    <i name="e_wo_entrp">    -44.09324156 </i>
    <i name="e_0_energy">    -44.09324156 </i>
   </energy>
  </scstep>
  <scstep>
   <time name="dav">    0.76    0.76</time>
   <time name="total">    0.81    0.82</time>
   <energy>
    <i name="e_fr_energy">    -43.60660500 </i>
    <i name="e_wo_entrp">    -43.60660500 </i>
    <i name="e_0_energy">    -43.60660500 </i>
   </energy>
  </scstep>
  <scstep>
   <time name="dav">    0.75    0.75</time>
   <time name="total">    0.80    0.80</time>
   <energy>
    <i name="e_fr_energy">    -43.38550215 </i>
    <i name="e_wo_entrp">    -43.38550215 </i>
    <i name="e_0_energy">    -43.38550215 </i>
   </energy>
  </scstep>
  <scstep>
   <time name="dav">    0.77    0.77</time>
   <time name="total">    0.81    0.82</time>
   <energy>
    <i name="e_fr_energy">    -43.38864835 </i>
    <i name="e_wo_entrp">    -43.38864835 </i>
    <i name="e_0_energy">    -43.38864835 </i>
   </energy>
  </scstep>
  <scstep>
   <time name="dav">    0.82    0.82</time>
   <time name="total">    0.86    0.87</time>
   <energy>
    <i name="e_fr_energy">    -43.38954480 </i>
    <i name="e_wo_entrp">    -43.38954480 </i>
    <i name="e_0_energy">    -43.38954480 </i>
   </energy>
  </scstep>
  <scstep>
   <time name="dav">    0.75    0.75</time>
   <time name="total">    0.80    0.80</time>
   <energy>
    <i name="e_fr_energy">    -43.38979012 </i>
    <i name="e_wo_entrp">    -43.38979012 </i>
    <i name="e_0_energy">    -43.38979012 </i>
   </energy>
  </scstep>
  <scstep>
   <time name="dav">    0.81    0.81</time>
   <time name="total">    0.86    0.86</time>
   <energy>
    <i name="e_fr_energy">    -43.38978916 </i>
    <i name="e_wo_entrp">    -43.38978916 </i>
    <i name="e_0_energy">    -43.38978916 </i>
   </energy>
  </scstep>
  <scstep>
   <time name="dav">    0.78    0.78</time>
   <time name="total">    0.83    0.84</time>
   <energy>
    <i name="e_fr_energy">    -43.38979032 </i>
    <i name="e_wo_entrp">    -43.38979032 </i>
    <i name="e_0_energy">    -43.38979032 </i>
   </energy>
  </scstep>
  <scstep>
   <time name="dav">    0.78    0.78</time>
   <time name="total">    0.82    0.83</time>
   <energy>
    <i name="e_fr_energy">    -43.38979005 </i>
    <i name="e_wo_entrp">    -43.38979005 </i>
    <i name="e_0_energy">    -43.38979005 </i>
   </energy>
  </scstep>
  <scstep>
   <time name="dav">    0.68    0.68</time>
   <time name="total">    0.73    0.73</time>
   <energy>
    <i name="e_fr_energy">    -43.38979014 </i>
    <i name="e_wo_entrp">    -43.38979014 </i>
    <i name="e_0_energy">    -43.38979014 </i>
   </energy>
  </scstep>
  <scstep>
   <time name="dav">    0.62    0.62</time>
   <time name="total">    0.63    0.64</time>
   <energy>
    <i name="alphaZ">     13.35522965 </i>
    <i name="ewald">   -911.94973844 </i>
    <i name="hartreedc">    -60.02965796 </i>
    <i name="XCdc">    -71.99025675 </i>
    <i name="pawpsdc">   3421.48990560 </i>
    <i name="pawaedc">  -3281.61315717 </i>
    <i name="eentropy">     -0.00000000 </i>
    <i name="bandstr">     22.81783120 </i>
    <i name="atom">    824.53005375 </i>
    <i name="e_fr_energy">    -43.38979013 </i>
    <i name="e_wo_entrp">    -43.38979013 </i>
    <i name="e_0_energy">    -43.38979013 </i>
   </energy>
  </scstep>
  <structure>
   <crystal>
    <varray name="basis" >
     <v>       0.00000000       0.00000000     -10.88740475 </v>
     <v>      -2.72185119       2.72185119      -0.00000000 </v>
     <v>       2.72185119       2.72185119       0.00000000 </v>
    </varray>
    <i name="volume">    161.31810740 </i>
    <varray name="rec_basis" >
     <v>       0.00000000      -0.00000000      -0.09184925 </v>
     <v>      -0.18369851       0.18369851       0.00000000 </v>
     <v>       0.18369851       0.18369851       0.00000000 </v>
    </varray>
   </crystal>
   <varray name="positions" >
    <v>       0.00086596       0.00086596       0.00000000 </v>
    <v>       0.75000000       0.50000000       0.50000000 </v>
    <v>       0.50000000       0.00000000       0.00000000 </v>
    <v>       0.25000000       0.50000000       0.50000000 </v>
    <v>       0.87500000       0.00000000       0.50000000 </v>
    <v>       0.62500000       0.50000000       0.00000000 </v>
    <v>       0.37500000       0.00000000       0.50000000 </v>
    <v>       0.12500000       0.50000000       0.00000000 </v>
   </varray>
  </structure>
  <varray name="forces" >
   <v>       0.02991426      -0.02991426       0.14382724 </v>
   <v>       0.00097332      -0.00097332      -0.00859929 </v>
   <v>       0.00045582      -0.00045582      -0.00015242 </v>
   <v>       0.00095532      -0.00095532      -0.00866528 </v>
   <v>      -0.00426103       0.00426103      -0.06248156 </v>
   <v>      -0.00129664       0.00129664      -0.00036377 </v>
   <v>      -0.00024453       0.00024453      -0.00037988 </v>
   <v>      -0.02649652       0.02649652      -0.06318503 </v>
  </varray>
  <varray name="stress" >
   <v>      12.55461034      -0.90217339       0.23019779 </v>
   <v>      -0.90217339      12.55461034      -0.23019779 </v>
   <v>       0.23019776      -0.23019776      12.48467880 </v>
  </varray>
  <energy>
   <i name="e_fr_energy">    -43.38979013 </i>
   <i name="e_wo_entrp">    -43.38979013 </i>
   <i name="e_0_energy">    -43.38979013 </i>
  </energy>
  <time name="totalsc">   12.58   12.64</time>
  <eigenvalues>
   <array>
    <dimension dim="1">band</dimension>
    <dimension dim="2">kpoint</dimension>
    <dimension dim="3">spin</dimension>
    <field>eigene</field>
    <field>occ</field>
    <set>
     <set comment="spin 1">
      <set comment="kpoint 1">
       <r>   -6.1549    1.0000 </r>
       <r>   -5.0876    1.0000 </r>
       <r>   -5.0714    1.0000 </r>
       <r>   -2.0441    1.0000 </r>
       <r>   -2.0291    1.0000 </r>
       <r>    2.2352    1.0000 </r>
       <r>    2.2408    1.0000 </r>
       <r>    2.9192    1.0000 </r>
       <r>    2.9272    1.0000 </r>
       <r>    3.8644    1.0000 </r>
       <r>    3.8745    1.0000 </r>
       <r>    3.8840    1.0000 </r>
       <r>    3.8942    1.0000 </r>
       <r>    5.7408    1.0000 </r>
       <r>    5.7545    1.0000 </r>
       <r>    5.7648    1.0000 </r>
       <r>    6.4726    0.0000 </r>
       <r>    6.4840    0.0000 </r>
       <r>    6.8883    0.0000 </r>
       <r>    6.8963    0.0000 </r>
       <r>    8.3095    0.0000 </r>
       <r>    8.3152    0.0000 </r>
       <r>    8.3236    0.0000 </r>
       <r>    8.8859    0.0000 </r>
      </set>
      <set comment="kpoint 2">
       <r>   -6.0870    1.0000 </r>
       <r>   -5.5468    1.0000 </r>
       <r>   -4.4867    1.0000 </r>
       <r>   -2.9543    1.0000 </r>
       <r>   -1.0380    1.0000 </r>
       <r>    1.1214    1.0000 </r>
       <r>    2.9804    1.0000 </r>
       <r>    2.9886    1.0000 </r>
       <r>    3.3482    1.0000 </r>
       <r>    3.4635    1.0000 </r>
       <r>    3.4726    1.0000 </r>
       <r>    4.3801    1.0000 </r>
       <r>    4.3919    1.0000 </r>
       <r>    5.3297    1.0000 </r>
       <r>    5.4841    1.0000 </r>
       <r>    5.5031    1.0000 </r>
       <r>    6.3450    0.0000 </r>
       <r>    6.5713    0.0000 </r>
       <r>    6.7955    0.0000 </r>
       <r>    7.3108    0.0000 </r>
       <r>    8.0127    0.0000 </r>
       <r>    8.1563    0.0000 </r>
       <r>    8.6547    0.0000 </r>
       <r>    8.6646    0.0000 </r>
      </set>
      <set comment="kpoint 3">
       <r>   -5.8888    1.0000 </r>
       <r>   -5.8785    1.0000 </r>
       <r>   -3.7839    1.0000 </r>
       <r>   -3.7666    1.0000 </r>
       <r>    0.0165    1.0000 </r>
       <r>    0.0274    1.0000 </r>
       <r>    3.1561    1.0000 </r>
       <r>    3.1648    1.0000 </r>
       <r>    3.1700    1.0000 </r>
       <r>    3.1784    1.0000 </r>
       <r>    4.4145    1.0000 </r>
       <r>    4.4149    1.0000 </r>
       <r>    4.9363    1.0000 </r>
       <r>    4.9507    1.0000 </r>
       <r>    4.9581    1.0000 </r>
       <r>    4.9728    1.0000 </r>
       <r>    6.3763    0.0000 </r>
       <r>    6.3871    0.0000 </r>
       <r>    7.3014    0.0000 </r>
       <r>    7.3112    0.0000 </r>
       <r>    7.7661    0.0000 </r>
       <r>    7.7704    0.0000 </r>
       <r>    9.4420    0.0000 </r>
       <r>    9.4459    0.0000 </r>
      </set>
      <set comment="kpoint 4">
       <r>   -6.0831    1.0000 </r>
       <r>   -5.0224    1.0000 </r>
       <r>   -5.0062    1.0000 </r>
       <r>   -2.0631    1.0000 </r>
       <r>   -1.9662    1.0000 </r>
       <r>    1.9448    1.0000 </r>
       <r>    1.9522    1.0000 </r>
       <r>    2.5120    1.0000 </r>
       <r>    2.9848    1.0000 </r>
       <r>    3.7697    1.0000 </r>
       <r>    3.7848    1.0000 </r>
       <r>    3.9184    1.0000 </r>
       <r>    3.9381    1.0000 </r>
       <r>    5.1119    1.0000 </r>
       <r>    5.4623    1.0000 </r>
       <r>    5.7321    1.0000 </r>
       <r>    6.5504    0.0000 </r>
       <r>    7.1215    0.0000 </r>
       <r>    7.2563    0.0000 </r>
       <r>    7.2652    0.0000 </r>
       <r>    8.3834    0.0000 </r>
       <r>    8.4582    0.0000 </r>
       <r>    8.5237    0.0000 </r>
       <r>    9.1432    0.0000 </r>
      </set>
      <set comment="kpoint 5">
       <r>   -6.0831    1.0000 </r>
       <r>   -5.0225    1.0000 </r>
       <r>   -5.0064    1.0000 </r>
       <r>   -2.0778    1.0000 </r>
       <r>   -1.9512    1.0000 </r>
       <r>    1.9470    1.0000 </r>
       <r>    1.9529    1.0000 </r>
       <r>    2.5203    1.0000 </r>
       <r>    2.9766    1.0000 </r>
       <r>    3.7795    1.0000 </r>
       <r>    3.7937    1.0000 </r>
       <r>    3.9081    1.0000 </r>
       <r>    3.9277    1.0000 </r>
       <r>    5.1316    1.0000 </r>
       <r>    5.4612    1.0000 </r>
       <r>    5.7098    1.0000 </r>
       <r>    6.5389    0.0000 </r>
       <r>    7.1325    0.0000 </r>
       <r>    7.2530    0.0000 </r>
       <r>    7.2616    0.0000 </r>
       <r>    8.3967    0.0000 </r>
       <r>    8.4463    0.0000 </r>
       <r>    8.5229    0.0000 </r>
       <r>    9.1516    0.0000 </r>
      </set>
      <set comment="kpoint 6">
       <r>   -6.0154    1.0000 </r>
       <r>   -5.4784    1.0000 </r>
       <r>   -4.4263    1.0000 </r>
       <r>   -2.9148    1.0000 </r>
       <r>   -1.0458    1.0000 </r>
       <r>    0.9687    1.0000 </r>
       <r>    2.5892    1.0000 </r>
       <r>    2.8747    1.0000 </r>
       <r>    3.0455    1.0000 </r>
       <r>    3.2230    1.0000 </r>
       <r>    3.5232    1.0000 </r>
       <r>    4.4249    1.0000 </r>
       <r>    4.4585    1.0000 </r>
       <r>    4.5590    1.0000 </r>
       <r>    5.4903    1.0000 </r>
       <r>    5.5808    1.0000 </r>
       <r>    6.5781    0.0000 </r>
       <r>    6.9217    0.0000 </r>
       <r>    7.2725    0.0000 </r>
       <r>    7.6784    0.0000 </r>
       <r>    8.3236    0.0000 </r>
       <r>    8.3330    0.0000 </r>
       <r>    8.5468    0.0000 </r>
       <r>    8.6961    0.0000 </r>
      </set>
      <set comment="kpoint 7">
       <r>   -6.0155    1.0000 </r>
       <r>   -5.4784    1.0000 </r>
       <r>   -4.4267    1.0000 </r>
       <r>   -2.9152    1.0000 </r>
       <r>   -1.0455    1.0000 </r>
       <r>    0.9710    1.0000 </r>
       <r>    2.5981    1.0000 </r>
       <r>    2.8750    1.0000 </r>
       <r>    3.0371    1.0000 </r>
       <r>    3.2303    1.0000 </r>
       <r>    3.5140    1.0000 </r>
       <r>    4.4126    1.0000 </r>
       <r>    4.4717    1.0000 </r>
       <r>    4.5705    1.0000 </r>
       <r>    5.4713    1.0000 </r>
       <r>    5.5866    1.0000 </r>
       <r>    6.5684    0.0000 </r>
       <r>    6.9172    0.0000 </r>
       <r>    7.2816    0.0000 </r>
       <r>    7.6757    0.0000 </r>
       <r>    8.3193    0.0000 </r>
       <r>    8.3363    0.0000 </r>
       <r>    8.5409    0.0000 </r>
       <r>    8.7058    0.0000 </r>
      </set>
      <set comment="kpoint 8">
       <r>   -6.0155    1.0000 </r>
       <r>   -5.4782    1.0000 </r>
       <r>   -4.4267    1.0000 </r>
       <r>   -2.9140    1.0000 </r>
       <r>   -1.0473    1.0000 </r>
       <r>    0.9718    1.0000 </r>
       <r>    2.5902    1.0000 </r>
       <r>    2.8697    1.0000 </r>
       <r>    3.0454    1.0000 </r>
       <r>    3.2195    1.0000 </r>
       <r>    3.5234    1.0000 </r>
       <r>    4.4245    1.0000 </r>
       <r>    4.4654    1.0000 </r>
       <r>    4.5639    1.0000 </r>
       <r>    5.4907    1.0000 </r>
       <r>    5.5738    1.0000 </r>
       <r>    6.5777    0.0000 </r>
       <r>    6.9223    0.0000 </r>
       <r>    7.2725    0.0000 </r>
       <r>    7.6780    0.0000 </r>
       <r>    8.3196    0.0000 </r>
       <r>    8.3341    0.0000 </r>
       <r>    8.5507    0.0000 </r>
       <r>    8.6950    0.0000 </r>
      </set>
      <set comment="kpoint 9">
       <r>   -5.8183    1.0000 </r>
       <r>   -5.8080    1.0000 </r>
       <r>   -3.7314    1.0000 </r>
       <r>   -3.7142    1.0000 </r>
       <r>   -0.0459    1.0000 </r>
       <r>   -0.0352    1.0000 </r>
       <r>    2.8183    1.0000 </r>
       <r>    2.8314    1.0000 </r>
       <r>    3.2195    1.0000 </r>
       <r>    3.2331    1.0000 </r>
       <r>    3.7390    1.0000 </r>
       <r>    3.7504    1.0000 </r>
       <r>    4.9655    1.0000 </r>
       <r>    4.9876    1.0000 </r>
       <r>    5.1569    1.0000 </r>
       <r>    5.1692    1.0000 </r>
       <r>    6.6865    0.0000 </r>
       <r>    6.6986    0.0000 </r>
       <r>    7.6834    0.0000 </r>
       <r>    7.6950    0.0000 </r>
       <r>    8.1053    0.0000 </r>
       <r>    8.1103    0.0000 </r>
       <r>    8.9052    0.0000 </r>
       <r>    8.9140    0.0000 </r>
      </set>
      <set comment="kpoint 10">
       <r>   -5.8184    1.0000 </r>
       <r>   -5.8081    1.0000 </r>
       <r>   -3.7317    1.0000 </r>
       <r>   -3.7145    1.0000 </r>
       <r>   -0.0451    1.0000 </r>
       <r>   -0.0346    1.0000 </r>
       <r>    2.8273    1.0000 </r>
       <r>    2.8398    1.0000 </r>
       <r>    3.2107    1.0000 </r>
       <r>    3.2246    1.0000 </r>
       <r>    3.7448    1.0000 </r>
       <r>    3.7549    1.0000 </r>
       <r>    4.9507    1.0000 </r>
       <r>    4.9725    1.0000 </r>
       <r>    5.1681    1.0000 </r>
       <r>    5.1783    1.0000 </r>
       <r>    6.6797    0.0000 </r>
       <r>    6.6919    0.0000 </r>
       <r>    7.6901    0.0000 </r>
       <r>    7.7009    0.0000 </r>
       <r>    8.1041    0.0000 </r>
       <r>    8.1087    0.0000 </r>
       <r>    8.8982    0.0000 </r>
       <r>    8.9069    0.0000 </r>
      </set>
      <set comment="kpoint 11">
       <r>   -5.8689    1.0000 </r>
       <r>   -4.8314    1.0000 </r>
       <r>   -4.8154    1.0000 </r>
       <r>   -2.2076    1.0000 </r>
       <r>   -1.7330    1.0000 </r>
       <r>    1.1759    1.0000 </r>
       <r>    1.1869    1.0000 </r>
       <r>    1.8336    1.0000 </r>
       <r>    3.1549    1.0000 </r>
       <r>    3.7816    1.0000 </r>
       <r>    3.7910    1.0000 </r>
       <r>    3.9575    1.0000 </r>
       <r>    4.0429    1.0000 </r>
       <r>    4.0625    1.0000 </r>
       <r>    4.7681    1.0000 </r>
       <r>    5.6218    1.0000 </r>
       <r>    6.7469    0.0000 </r>
       <r>    7.7907    0.0000 </r>
       <r>    7.8035    0.0000 </r>
       <r>    8.5638    0.0000 </r>
       <r>    8.6048    0.0000 </r>
       <r>    8.6909    0.0000 </r>
       <r>    8.7838    0.0000 </r>
       <r>    9.8754    0.0000 </r>
      </set>
      <set comment="kpoint 12">
       <r>   -5.8692    1.0000 </r>
       <r>   -4.8320    1.0000 </r>
       <r>   -4.8160    1.0000 </r>
       <r>   -2.2212    1.0000 </r>
       <r>   -1.7180    1.0000 </r>
       <r>    1.1808    1.0000 </r>
       <r>    1.1905    1.0000 </r>
       <r>    1.8414    1.0000 </r>
       <r>    3.1463    1.0000 </r>
       <r>    3.7911    1.0000 </r>
       <r>    3.7976    1.0000 </r>
       <r>    3.9749    1.0000 </r>
       <r>    4.0319    1.0000 </r>
       <r>    4.0515    1.0000 </r>
       <r>    4.7658    1.0000 </r>
       <r>    5.6004    1.0000 </r>
       <r>    6.7352    0.0000 </r>
       <r>    7.7819    0.0000 </r>
       <r>    7.7948    0.0000 </r>
       <r>    8.5746    0.0000 </r>
       <r>    8.6182    0.0000 </r>
       <r>    8.6882    0.0000 </r>
       <r>    8.7740    0.0000 </r>
       <r>    9.8745    0.0000 </r>
      </set>
      <set comment="kpoint 13">
       <r>   -5.8024    1.0000 </r>
       <r>   -5.2762    1.0000 </r>
       <r>   -4.2537    1.0000 </r>
       <r>   -2.8313    1.0000 </r>
       <r>   -1.0888    1.0000 </r>
       <r>    0.4619    1.0000 </r>
       <r>    1.9081    1.0000 </r>
       <r>    1.9635    1.0000 </r>
       <r>    2.9928    1.0000 </r>
       <r>    3.2134    1.0000 </r>
       <r>    3.4388    1.0000 </r>
       <r>    3.6703    1.0000 </r>
       <r>    4.5126    1.0000 </r>
       <r>    4.6025    1.0000 </r>
       <r>    5.1297    1.0000 </r>
       <r>    5.4349    1.0000 </r>
       <r>    6.8228    0.0000 </r>
       <r>    7.3846    0.0000 </r>
       <r>    8.1434    0.0000 </r>
       <r>    8.1720    0.0000 </r>
       <r>    8.6570    0.0000 </r>
       <r>    8.8200    0.0000 </r>
       <r>    9.0572    0.0000 </r>
       <r>    9.0916    0.0000 </r>
      </set>
      <set comment="kpoint 14">
       <r>   -5.8028    1.0000 </r>
       <r>   -5.2765    1.0000 </r>
       <r>   -4.2550    1.0000 </r>
       <r>   -2.8339    1.0000 </r>
       <r>   -1.0855    1.0000 </r>
       <r>    0.4678    1.0000 </r>
       <r>    1.9111    1.0000 </r>
       <r>    1.9723    1.0000 </r>
       <r>    2.9982    1.0000 </r>
       <r>    3.2045    1.0000 </r>
       <r>    3.4512    1.0000 </r>
       <r>    3.6606    1.0000 </r>
       <r>    4.4993    1.0000 </r>
       <r>    4.6142    1.0000 </r>
       <r>    5.1329    1.0000 </r>
       <r>    5.4160    1.0000 </r>
       <r>    6.8112    0.0000 </r>
       <r>    7.3743    0.0000 </r>
       <r>    8.1400    0.0000 </r>
       <r>    8.1660    0.0000 </r>
       <r>    8.6678    0.0000 </r>
       <r>    8.8301    0.0000 </r>
       <r>    9.0484    0.0000 </r>
       <r>    9.0806    0.0000 </r>
      </set>
      <set comment="kpoint 15">
       <r>   -5.8025    1.0000 </r>
       <r>   -5.2758    1.0000 </r>
       <r>   -4.2545    1.0000 </r>
       <r>   -2.8297    1.0000 </r>
       <r>   -1.0920    1.0000 </r>
       <r>    0.4668    1.0000 </r>
       <r>    1.9034    1.0000 </r>
       <r>    1.9654    1.0000 </r>
       <r>    2.9878    1.0000 </r>
       <r>    3.2132    1.0000 </r>
       <r>    3.4429    1.0000 </r>
       <r>    3.6707    1.0000 </r>
       <r>    4.5118    1.0000 </r>
       <r>    4.6084    1.0000 </r>
       <r>    5.1249    1.0000 </r>
       <r>    5.4356    1.0000 </r>
       <r>    6.8226    0.0000 </r>
       <r>    7.3849    0.0000 </r>
       <r>    8.1453    0.0000 </r>
       <r>    8.1695    0.0000 </r>
       <r>    8.6570    0.0000 </r>
       <r>    8.8178    0.0000 </r>
       <r>    9.0593    0.0000 </r>
       <r>    9.0893    0.0000 </r>
      </set>
      <set comment="kpoint 16">
       <r>   -5.6090    1.0000 </r>
       <r>   -5.5988    1.0000 </r>
       <r>   -3.5897    1.0000 </r>
       <r>   -3.5728    1.0000 </r>
       <r>   -0.2939    1.0000 </r>
       <r>   -0.2839    1.0000 </r>
       <r>    2.3511    1.0000 </r>
       <r>    2.3615    1.0000 </r>
       <r>    2.6594    1.0000 </r>
       <r>    2.6729    1.0000 </r>
       <r>    3.3801    1.0000 </r>
       <r>    3.3939    1.0000 </r>
       <r>    4.9941    1.0000 </r>
       <r>    5.0158    1.0000 </r>
       <r>    5.1827    1.0000 </r>
       <r>    5.1909    1.0000 </r>
       <r>    7.0362    0.0000 </r>
       <r>    7.0505    0.0000 </r>
       <r>    8.0370    0.0000 </r>
       <r>    8.0409    0.0000 </r>
       <r>    8.9288    0.0000 </r>
       <r>    8.9457    0.0000 </r>
       <r>    8.9495    0.0000 </r>
       <r>    8.9549    0.0000 </r>
      </set>
      <set comment="kpoint 17">
       <r>   -5.6094    1.0000 </r>
       <r>   -5.5992    1.0000 </r>
       <r>   -3.5912    1.0000 </r>
       <r>   -3.5744    1.0000 </r>
       <r>   -0.2900    1.0000 </r>
       <r>   -0.2810    1.0000 </r>
       <r>    2.3598    1.0000 </r>
       <r>    2.3686    1.0000 </r>
       <r>    2.6665    1.0000 </r>
       <r>    2.6799    1.0000 </r>
       <r>    3.3708    1.0000 </r>
       <r>    3.3849    1.0000 </r>
       <r>    4.9786    1.0000 </r>
       <r>    5.0001    1.0000 </r>
       <r>    5.1932    1.0000 </r>
       <r>    5.1989    1.0000 </r>
       <r>    7.0248    0.0000 </r>
       <r>    7.0394    0.0000 </r>
       <r>    8.0342    0.0000 </r>
       <r>    8.0371    0.0000 </r>
       <r>    8.9317    0.0000 </r>
       <r>    8.9377    0.0000 </r>
       <r>    8.9443    0.0000 </r>
       <r>    8.9612    0.0000 </r>
      </set>
      <set comment="kpoint 18">
       <r>   -5.5172    1.0000 </r>
       <r>   -4.5330    1.0000 </r>
       <r>   -4.5174    1.0000 </r>
       <r>   -2.5538    1.0000 </r>
       <r>   -1.3455    1.0000 </r>
       <r>    0.2517    1.0000 </r>
       <r>    0.2643    1.0000 </r>
       <r>    1.4208    1.0000 </r>
       <r>    2.7776    1.0000 </r>
       <r>    3.4294    1.0000 </r>
       <r>    3.9268    1.0000 </r>
       <r>    3.9866    1.0000 </r>
       <r>    3.9925    1.0000 </r>
       <r>    4.2241    1.0000 </r>
       <r>    4.2435    1.0000 </r>
       <r>    5.4080    1.0000 </r>
       <r>    7.0645    0.0000 </r>
       <r>    8.0061    0.0000 </r>
       <r>    8.0180    0.0000 </r>
       <r>    8.7920    0.0000 </r>
       <r>    8.9730    0.0000 </r>
       <r>    9.2233    0.0000 </r>
       <r>    9.2328    0.0000 </r>
       <r>    9.2379    0.0000 </r>
      </set>
      <set comment="kpoint 19">
       <r>   -5.5180    1.0000 </r>
       <r>   -4.5345    1.0000 </r>
       <r>   -4.5190    1.0000 </r>
       <r>   -2.5647    1.0000 </r>
       <r>   -1.3305    1.0000 </r>
       <r>    0.2588    1.0000 </r>
       <r>    0.2703    1.0000 </r>
       <r>    1.4263    1.0000 </r>
       <r>    2.7940    1.0000 </r>
       <r>    3.4200    1.0000 </r>
       <r>    3.9240    1.0000 </r>
       <r>    3.9954    1.0000 </r>
       <r>    3.9989    1.0000 </r>
       <r>    4.2120    1.0000 </r>
       <r>    4.2314    1.0000 </r>
       <r>    5.3883    1.0000 </r>
       <r>    7.0526    0.0000 </r>
       <r>    7.9989    0.0000 </r>
       <r>    8.0109    0.0000 </r>
       <r>    8.7860    0.0000 </r>
       <r>    8.9865    0.0000 </r>
       <r>    9.2156    0.0000 </r>
       <r>    9.2207    0.0000 </r>
       <r>    9.2295    0.0000 </r>
      </set>
      <set comment="kpoint 20">
       <r>   -5.4532    1.0000 </r>
       <r>   -4.9510    1.0000 </r>
       <r>   -4.0027    1.0000 </r>
       <r>   -2.8521    1.0000 </r>
       <r>   -1.1221    1.0000 </r>
       <r>   -0.2710    1.0000 </r>
       <r>    0.8746    1.0000 </r>
       <r>    1.6463    1.0000 </r>
       <r>    2.3062    1.0000 </r>
       <r>    3.0947    1.0000 </r>
       <r>    3.4833    1.0000 </r>
       <r>    3.8978    1.0000 </r>
       <r>    4.3787    1.0000 </r>
       <r>    4.6192    1.0000 </r>
       <r>    4.7275    1.0000 </r>
       <r>    5.2940    1.0000 </r>
       <r>    7.1443    0.0000 </r>
       <r>    7.7169    0.0000 </r>
       <r>    7.8046    0.0000 </r>
       <r>    8.2686    0.0000 </r>
       <r>    9.0356    0.0000 </r>
       <r>    9.0889    0.0000 </r>
       <r>    9.4059    0.0000 </r>
       <r>    9.5596    0.0000 </r>
      </set>
      <set comment="kpoint 21">
       <r>   -5.4542    1.0000 </r>
       <r>   -4.9518    1.0000 </r>
       <r>   -4.0057    1.0000 </r>
       <r>   -2.8580    1.0000 </r>
       <r>   -1.1133    1.0000 </r>
       <r>   -0.2616    1.0000 </r>
       <r>    0.8795    1.0000 </r>
       <r>    1.6533    1.0000 </r>
       <r>    2.3189    1.0000 </r>
       <r>    3.0990    1.0000 </r>
       <r>    3.4736    1.0000 </r>
       <r>    3.8873    1.0000 </r>
       <r>    4.3801    1.0000 </r>
       <r>    4.6047    1.0000 </r>
       <r>    4.7390    1.0000 </r>
       <r>    5.2758    1.0000 </r>
       <r>    7.1322    0.0000 </r>
       <r>    7.7055    0.0000 </r>
       <r>    7.8030    0.0000 </r>
       <r>    8.2636    0.0000 </r>
       <r>    9.0460    0.0000 </r>
       <r>    9.0708    0.0000 </r>
       <r>    9.3935    0.0000 </r>
       <r>    9.5699    0.0000 </r>
      </set>
      <set comment="kpoint 22">
       <r>   -5.4534    1.0000 </r>
       <r>   -4.9503    1.0000 </r>
       <r>   -4.0041    1.0000 </r>
       <r>   -2.8499    1.0000 </r>
       <r>   -1.1267    1.0000 </r>
       <r>   -0.2658    1.0000 </r>
       <r>    0.8704    1.0000 </r>
       <r>    1.6489    1.0000 </r>
       <r>    2.3095    1.0000 </r>
       <r>    3.0901    1.0000 </r>
       <r>    3.4831    1.0000 </r>
       <r>    3.8985    1.0000 </r>
       <r>    4.3751    1.0000 </r>
       <r>    4.6180    1.0000 </r>
       <r>    4.7326    1.0000 </r>
       <r>    5.2948    1.0000 </r>
       <r>    7.1441    0.0000 </r>
       <r>    7.7169    0.0000 </r>
       <r>    7.8068    0.0000 </r>
       <r>    8.2665    0.0000 </r>
       <r>    9.0324    0.0000 </r>
       <r>    9.0869    0.0000 </r>
       <r>    9.4068    0.0000 </r>
       <r>    9.5649    0.0000 </r>
      </set>
      <set comment="kpoint 23">
       <r>   -5.2680    1.0000 </r>
       <r>   -5.2579    1.0000 </r>
       <r>   -3.4265    1.0000 </r>
       <r>   -3.4107    1.0000 </r>
       <r>   -0.7277    1.0000 </r>
       <r>   -0.7183    1.0000 </r>
       <r>    1.5636    1.0000 </r>
       <r>    1.5781    1.0000 </r>
       <r>    2.2540    1.0000 </r>
       <r>    2.2601    1.0000 </r>
       <r>    3.6353    1.0000 </r>
       <r>    3.6494    1.0000 </r>
       <r>    4.8858    1.0000 </r>
       <r>    4.8920    1.0000 </r>
       <r>    4.9891    1.0000 </r>
       <r>    5.0101    1.0000 </r>
       <r>    7.3674    0.0000 </r>
       <r>    7.3820    0.0000 </r>
       <r>    7.7193    0.0000 </r>
       <r>    7.7225    0.0000 </r>
       <r>    9.2206    0.0000 </r>
       <r>    9.2321    0.0000 </r>
       <r>    9.3251    0.0000 </r>
       <r>    9.3334    0.0000 </r>
      </set>
      <set comment="kpoint 24">
       <r>   -5.2689    1.0000 </r>
       <r>   -5.2588    1.0000 </r>
       <r>   -3.4302    1.0000 </r>
       <r>   -3.4145    1.0000 </r>
       <r>   -0.7188    1.0000 </r>
       <r>   -0.7112    1.0000 </r>
       <r>    1.5722    1.0000 </r>
       <r>    1.5859    1.0000 </r>
       <r>    2.2607    1.0000 </r>
       <r>    2.2655    1.0000 </r>
       <r>    3.6250    1.0000 </r>
       <r>    3.6396    1.0000 </r>
       <r>    4.8947    1.0000 </r>
       <r>    4.8989    1.0000 </r>
       <r>    4.9734    1.0000 </r>
       <r>    4.9936    1.0000 </r>
       <r>    7.3551    0.0000 </r>
       <r>    7.3702    0.0000 </r>
       <r>    7.7157    0.0000 </r>
       <r>    7.7183    0.0000 </r>
       <r>    9.2310    0.0000 </r>
       <r>    9.2411    0.0000 </r>
       <r>    9.3094    0.0000 </r>
       <r>    9.3172    0.0000 </r>
      </set>
      <set comment="kpoint 25">
       <r>   -5.0377    1.0000 </r>
       <r>   -4.1765    1.0000 </r>
       <r>   -4.1617    1.0000 </r>
       <r>   -3.1156    1.0000 </r>
       <r>   -0.8059    1.0000 </r>
       <r>   -0.5790    1.0000 </r>
       <r>   -0.5667    1.0000 </r>
       <r>    1.4205    1.0000 </r>
       <r>    1.6862    1.0000 </r>
       <r>    3.0914    1.0000 </r>
       <r>    3.7926    1.0000 </r>
       <r>    4.2798    1.0000 </r>
       <r>    4.2847    1.0000 </r>
       <r>    4.4146    1.0000 </r>
       <r>    4.4338    1.0000 </r>
       <r>    5.0803    1.0000 </r>
       <r>    7.4839    0.0000 </r>
       <r>    7.7192    0.0000 </r>
       <r>    7.7226    0.0000 </r>
       <r>    8.7335    0.0000 </r>
       <r>    9.0121    0.0000 </r>
       <r>    9.0211    0.0000 </r>
       <r>    9.4660    0.0000 </r>
       <r>    9.4852    0.0000 </r>
      </set>
      <set comment="kpoint 26">
       <r>   -5.0392    1.0000 </r>
       <r>   -4.1796    1.0000 </r>
       <r>   -4.1649    1.0000 </r>
       <r>   -3.1229    1.0000 </r>
       <r>   -0.7908    1.0000 </r>
       <r>   -0.5696    1.0000 </r>
       <r>   -0.5584    1.0000 </r>
       <r>    1.4228    1.0000 </r>
       <r>    1.7019    1.0000 </r>
       <r>    3.0887    1.0000 </r>
       <r>    3.7819    1.0000 </r>
       <r>    4.2894    1.0000 </r>
       <r>    4.2913    1.0000 </r>
       <r>    4.4012    1.0000 </r>
       <r>    4.4204    1.0000 </r>
       <r>    5.0631    1.0000 </r>
       <r>    7.4716    0.0000 </r>
       <r>    7.7167    0.0000 </r>
       <r>    7.7196    0.0000 </r>
       <r>    8.7236    0.0000 </r>
       <r>    8.9958    0.0000 </r>
       <r>    9.0041    0.0000 </r>
       <r>    9.4733    0.0000 </r>
       <r>    9.4890    0.0000 </r>
      </set>
      <set comment="kpoint 27">
       <r>   -4.9789    1.0000 </r>
       <r>   -4.5294    1.0000 </r>
       <r>   -3.7698    1.0000 </r>
       <r>   -3.1872    1.0000 </r>
       <r>   -0.9194    1.0000 </r>
       <r>   -0.9087    1.0000 </r>
       <r>   -0.0621    1.0000 </r>
       <r>    1.2602    1.0000 </r>
       <r>    1.7508    1.0000 </r>
       <r>    3.4327    1.0000 </r>
       <r>    3.5604    1.0000 </r>
       <r>    3.8380    1.0000 </r>
       <r>    4.1733    1.0000 </r>
       <r>    4.6816    1.0000 </r>
       <r>    4.6918    1.0000 </r>
       <r>    5.0339    1.0000 </r>
       <r>    7.4165    0.0000 </r>
       <r>    7.5535    0.0000 </r>
       <r>    7.9351    0.0000 </r>
       <r>    8.4454    0.0000 </r>
       <r>    9.2113    0.0000 </r>
       <r>    9.2245    0.0000 </r>
       <r>    9.3303    0.0000 </r>
       <r>    9.3705    0.0000 </r>
      </set>
      <set comment="kpoint 28">
       <r>   -4.9807    1.0000 </r>
       <r>   -4.5312    1.0000 </r>
       <r>   -3.7753    1.0000 </r>
       <r>   -3.1934    1.0000 </r>
       <r>   -0.9063    1.0000 </r>
       <r>   -0.8971    1.0000 </r>
       <r>   -0.0556    1.0000 </r>
       <r>    1.2735    1.0000 </r>
       <r>    1.7555    1.0000 </r>
       <r>    3.4370    1.0000 </r>
       <r>    3.5608    1.0000 </r>
       <r>    3.8271    1.0000 </r>
       <r>    4.1616    1.0000 </r>
       <r>    4.6657    1.0000 </r>
       <r>    4.7034    1.0000 </r>
       <r>    5.0173    1.0000 </r>
       <r>    7.4140    0.0000 </r>
       <r>    7.5412    0.0000 </r>
       <r>    7.9258    0.0000 </r>
       <r>    8.4389    0.0000 </r>
       <r>    9.1920    0.0000 </r>
       <r>    9.2372    0.0000 </r>
       <r>    9.3229    0.0000 </r>
       <r>    9.3810    0.0000 </r>
      </set>
      <set comment="kpoint 29">
       <r>   -4.9793    1.0000 </r>
       <r>   -4.5283    1.0000 </r>
       <r>   -3.7721    1.0000 </r>
       <r>   -3.1854    1.0000 </r>
       <r>   -0.9210    1.0000 </r>
       <r>   -0.9058    1.0000 </r>
       <r>   -0.0664    1.0000 </r>
       <r>    1.2633    1.0000 </r>
       <r>    1.7536    1.0000 </r>
       <r>    3.4285    1.0000 </r>
       <r>    3.5574    1.0000 </r>
       <r>    3.8377    1.0000 </r>
       <r>    4.1744    1.0000 </r>
       <r>    4.6800    1.0000 </r>
       <r>    4.6963    1.0000 </r>
       <r>    5.0347    1.0000 </r>
       <r>    7.4182    0.0000 </r>
       <r>    7.5534    0.0000 </r>
       <r>    7.9347    0.0000 </r>
       <r>    8.4441    0.0000 </r>
       <r>    9.2099    0.0000 </r>
       <r>    9.2303    0.0000 </r>
       <r>    9.3295    0.0000 </r>
       <r>    9.3665    0.0000 </r>
      </set>
      <set comment="kpoint 30">
       <r>   -4.8110    1.0000 </r>
       <r>   -4.8012    1.0000 </r>
       <r>   -3.4197    1.0000 </r>
       <r>   -3.4067    1.0000 </r>
       <r>   -1.0285    1.0000 </r>
       <r>   -1.0187    1.0000 </r>
       <r>    0.5644    1.0000 </r>
       <r>    0.5785    1.0000 </r>
       <r>    2.5143    1.0000 </r>
       <r>    2.5186    1.0000 </r>
       <r>    3.9624    1.0000 </r>
       <r>    3.9770    1.0000 </r>
       <r>    4.3054    1.0000 </r>
       <r>    4.3103    1.0000 </r>
       <r>    4.8867    1.0000 </r>
       <r>    4.9062    1.0000 </r>
       <r>    7.7346    0.0000 </r>
       <r>    7.7477    0.0000 </r>
       <r>    7.7930    0.0000 </r>
       <r>    7.7956    0.0000 </r>
       <r>    9.2059    0.0000 </r>
       <r>    9.2174    0.0000 </r>
       <r>    9.3977    0.0000 </r>
       <r>    9.4071    0.0000 </r>
      </set>
      <set comment="kpoint 31">
       <r>   -4.8129    1.0000 </r>
       <r>   -4.8030    1.0000 </r>
       <r>   -3.4256    1.0000 </r>
       <r>   -3.4129    1.0000 </r>
       <r>   -1.0156    1.0000 </r>
       <r>   -1.0077    1.0000 </r>
       <r>    0.5739    1.0000 </r>
       <r>    0.5875    1.0000 </r>
       <r>    2.5204    1.0000 </r>
       <r>    2.5223    1.0000 </r>
       <r>    3.9507    1.0000 </r>
       <r>    3.9660    1.0000 </r>
       <r>    4.3126    1.0000 </r>
       <r>    4.3156    1.0000 </r>
       <r>    4.8709    1.0000 </r>
       <r>    4.8898    1.0000 </r>
       <r>    7.7214    0.0000 </r>
       <r>    7.7374    0.0000 </r>
       <r>    7.7902    0.0000 </r>
       <r>    7.7915    0.0000 </r>
       <r>    9.2176    0.0000 </r>
       <r>    9.2276    0.0000 </r>
       <r>    9.3812    0.0000 </r>
       <r>    9.3904    0.0000 </r>
      </set>
      <set comment="kpoint 32">
       <r>   -4.4487    1.0000 </r>
       <r>   -3.8910    1.0000 </r>
       <r>   -3.8779    1.0000 </r>
       <r>   -3.7847    1.0000 </r>
       <r>   -1.1129    1.0000 </r>
       <r>   -1.1022    1.0000 </r>
       <r>   -0.1169    1.0000 </r>
       <r>    0.7163    1.0000 </r>
       <r>    1.7652    1.0000 </r>
       <r>    2.3483    1.0000 </r>
       <r>    4.2178    1.0000 </r>
       <r>    4.5186    1.0000 </r>
       <r>    4.5232    1.0000 </r>
       <r>    4.5426    1.0000 </r>
       <r>    4.5607    1.0000 </r>
       <r>    4.6671    1.0000 </r>
       <r>    7.3300    0.0000 </r>
       <r>    7.3320    0.0000 </r>
       <r>    7.9656    0.0000 </r>
       <r>    8.4282    0.0000 </r>
       <r>    9.0844    0.0000 </r>
       <r>    9.0965    0.0000 </r>
       <r>    9.1307    0.0000 </r>
       <r>    9.1428    0.0000 </r>
      </set>
      <set comment="kpoint 33">
       <r>   -4.4514    1.0000 </r>
       <r>   -3.8961    1.0000 </r>
       <r>   -3.8828    1.0000 </r>
       <r>   -3.7894    1.0000 </r>
       <r>   -1.1010    1.0000 </r>
       <r>   -1.0919    1.0000 </r>
       <r>   -0.1016    1.0000 </r>
       <r>    0.7317    1.0000 </r>
       <r>    1.7649    1.0000 </r>
       <r>    2.3465    1.0000 </r>
       <r>    4.2054    1.0000 </r>
       <r>    4.5244    1.0000 </r>
       <r>    4.5291    1.0000 </r>
       <r>    4.5339    1.0000 </r>
       <r>    4.5472    1.0000 </r>
       <r>    4.6522    1.0000 </r>
       <r>    7.3274    0.0000 </r>
       <r>    7.3284    0.0000 </r>
       <r>    7.9531    0.0000 </r>
       <r>    8.4161    0.0000 </r>
       <r>    9.0661    0.0000 </r>
       <r>    9.0778    0.0000 </r>
       <r>    9.1412    0.0000 </r>
       <r>    9.1520    0.0000 </r>
      </set>
      <set comment="kpoint 34">
       <r>   -4.4017    1.0000 </r>
       <r>   -4.0793    1.0000 </r>
       <r>   -3.7717    1.0000 </r>
       <r>   -3.7584    1.0000 </r>
       <r>   -1.1348    1.0000 </r>
       <r>   -0.7882    1.0000 </r>
       <r>   -0.3965    1.0000 </r>
       <r>    0.3462    1.0000 </r>
       <r>    2.1703    1.0000 </r>
       <r>    2.8000    1.0000 </r>
       <r>    3.8987    1.0000 </r>
       <r>    4.2477    1.0000 </r>
       <r>    4.3749    1.0000 </r>
       <r>    4.4411    1.0000 </r>
       <r>    4.6279    1.0000 </r>
       <r>    4.6693    1.0000 </r>
       <r>    7.4636    0.0000 </r>
       <r>    7.7982    0.0000 </r>
       <r>    8.0043    0.0000 </r>
       <r>    8.3752    0.0000 </r>
       <r>    9.0709    0.0000 </r>
       <r>    9.1443    0.0000 </r>
       <r>    9.1735    0.0000 </r>
       <r>    9.3955    0.0000 </r>
      </set>
      <set comment="kpoint 35">
       <r>   -4.4048    1.0000 </r>
       <r>   -4.0824    1.0000 </r>
       <r>   -3.7762    1.0000 </r>
       <r>   -3.7650    1.0000 </r>
       <r>   -1.1202    1.0000 </r>
       <r>   -0.7803    1.0000 </r>
       <r>   -0.3848    1.0000 </r>
       <r>    0.3602    1.0000 </r>
       <r>    2.1737    1.0000 </r>
       <r>    2.8002    1.0000 </r>
       <r>    3.9036    1.0000 </r>
       <r>    4.2348    1.0000 </r>
       <r>    4.3849    1.0000 </r>
       <r>    4.4281    1.0000 </r>
       <r>    4.6128    1.0000 </r>
       <r>    4.6544    1.0000 </r>
       <r>    7.4616    0.0000 </r>
       <r>    7.7938    0.0000 </r>
       <r>    7.9920    0.0000 </r>
       <r>    8.3645    0.0000 </r>
       <r>    9.0566    0.0000 </r>
       <r>    9.1531    0.0000 </r>
       <r>    9.1594    0.0000 </r>
       <r>    9.4019    0.0000 </r>
      </set>
      <set comment="kpoint 36">
       <r>   -4.4023    1.0000 </r>
       <r>   -4.0774    1.0000 </r>
       <r>   -3.7712    1.0000 </r>
       <r>   -3.7605    1.0000 </r>
       <r>   -1.1290    1.0000 </r>
       <r>   -0.7933    1.0000 </r>
       <r>   -0.3999    1.0000 </r>
       <r>    0.3493    1.0000 </r>
       <r>    2.1731    1.0000 </r>
       <r>    2.7972    1.0000 </r>
       <r>    3.8947    1.0000 </r>
       <r>    4.2472    1.0000 </r>
       <r>    4.3789    1.0000 </r>
       <r>    4.4424    1.0000 </r>
       <r>    4.6266    1.0000 </r>
       <r>    4.6698    1.0000 </r>
       <r>    7.4653    0.0000 </r>
       <r>    7.7968    0.0000 </r>
       <r>    8.0042    0.0000 </r>
       <r>    8.3749    0.0000 </r>
       <r>    9.0715    0.0000 </r>
       <r>    9.1500    0.0000 </r>
       <r>    9.1724    0.0000 </r>
       <r>    9.3900    0.0000 </r>
      </set>
      <set comment="kpoint 37">
       <r>   -4.2742    1.0000 </r>
       <r>   -4.2646    1.0000 </r>
       <r>   -3.7461    1.0000 </r>
       <r>   -3.7358    1.0000 </r>
       <r>   -0.8589    1.0000 </r>
       <r>   -0.8472    1.0000 </r>
       <r>   -0.2728    1.0000 </r>
       <r>   -0.2596    1.0000 </r>
       <r>    3.0026    1.0000 </r>
       <r>    3.0065    1.0000 </r>
       <r>    3.6290    1.0000 </r>
       <r>    3.6333    1.0000 </r>
       <r>    4.3220    1.0000 </r>
       <r>    4.3370    1.0000 </r>
       <r>    4.6532    1.0000 </r>
       <r>    4.6715    1.0000 </r>
       <r>    8.0397    0.0000 </r>
       <r>    8.0445    0.0000 </r>
       <r>    8.0466    0.0000 </r>
       <r>    8.0642    0.0000 </r>
       <r>    9.3234    0.0000 </r>
       <r>    9.3295    0.0000 </r>
       <r>    9.4100    0.0000 </r>
       <r>    9.4220    0.0000 </r>
      </set>
      <set comment="kpoint 38">
       <r>   -4.2776    1.0000 </r>
       <r>   -4.2678    1.0000 </r>
       <r>   -3.7512    1.0000 </r>
       <r>   -3.7412    1.0000 </r>
       <r>   -0.8461    1.0000 </r>
       <r>   -0.8356    1.0000 </r>
       <r>   -0.2620    1.0000 </r>
       <r>   -0.2492    1.0000 </r>
       <r>    3.0083    1.0000 </r>
       <r>    3.0100    1.0000 </r>
       <r>    3.6350    1.0000 </r>
       <r>    3.6373    1.0000 </r>
       <r>    4.3081    1.0000 </r>
       <r>    4.3248    1.0000 </r>
       <r>    4.6392    1.0000 </r>
       <r>    4.6557    1.0000 </r>
       <r>    8.0269    0.0000 </r>
       <r>    8.0420    0.0000 </r>
       <r>    8.0464    0.0000 </r>
       <r>    8.0500    0.0000 </r>
       <r>    9.3104    0.0000 </r>
       <r>    9.3164    0.0000 </r>
       <r>    9.4212    0.0000 </r>
       <r>    9.4319    0.0000 </r>
      </set>
      <set comment="kpoint 39">
       <r>   -6.0112    1.0000 </r>
       <r>   -4.9571    1.0000 </r>
       <r>   -4.9410    1.0000 </r>
       <r>   -2.0001    1.0000 </r>
       <r>   -1.9853    1.0000 </r>
       <r>    1.7746    1.0000 </r>
       <r>    1.7799    1.0000 </r>
       <r>    2.5706    1.0000 </r>
       <r>    2.5790    1.0000 </r>
       <r>    3.3741    1.0000 </r>
       <r>    3.3799    1.0000 </r>
       <r>    4.1725    1.0000 </r>
       <r>    4.1792    1.0000 </r>
       <r>    4.9460    1.0000 </r>
       <r>    5.2611    1.0000 </r>
       <r>    5.2651    1.0000 </r>
       <r>    7.1863    0.0000 </r>
       <r>    7.1974    0.0000 </r>
       <r>    7.6515    0.0000 </r>
       <r>    7.6598    0.0000 </r>
       <r>    7.9977    0.0000 </r>
       <r>    8.9819    0.0000 </r>
       <r>    8.9839    0.0000 </r>
       <r>    9.3466    0.0000 </r>
      </set>
      <set comment="kpoint 40">
       <r>   -5.9440    1.0000 </r>
       <r>   -5.4100    1.0000 </r>
       <r>   -4.3659    1.0000 </r>
       <r>   -2.8730    1.0000 </r>
       <r>   -1.0542    1.0000 </r>
       <r>    0.8594    1.0000 </r>
       <r>    2.5676    1.0000 </r>
       <r>    2.6576    1.0000 </r>
       <r>    2.7354    1.0000 </r>
       <r>    2.9796    1.0000 </r>
       <r>    3.5472    1.0000 </r>
       <r>    3.8808    1.0000 </r>
       <r>    4.3321    1.0000 </r>
       <r>    4.8714    1.0000 </r>
       <r>    5.0015    1.0000 </r>
       <r>    5.5942    1.0000 </r>
       <r>    7.0913    0.0000 </r>
       <r>    7.3418    0.0000 </r>
       <r>    7.4638    0.0000 </r>
       <r>    8.0529    0.0000 </r>
       <r>    8.3466    0.0000 </r>
       <r>    8.5606    0.0000 </r>
       <r>    8.7158    0.0000 </r>
       <r>    8.8479    0.0000 </r>
      </set>
      <set comment="kpoint 41">
       <r>   -5.9440    1.0000 </r>
       <r>   -5.4098    1.0000 </r>
       <r>   -4.3663    1.0000 </r>
       <r>   -2.8723    1.0000 </r>
       <r>   -1.0556    1.0000 </r>
       <r>    0.8620    1.0000 </r>
       <r>    2.5675    1.0000 </r>
       <r>    2.6538    1.0000 </r>
       <r>    2.7364    1.0000 </r>
       <r>    2.9792    1.0000 </r>
       <r>    3.5446    1.0000 </r>
       <r>    3.8816    1.0000 </r>
       <r>    4.3366    1.0000 </r>
       <r>    4.8759    1.0000 </r>
       <r>    5.0006    1.0000 </r>
       <r>    5.5890    1.0000 </r>
       <r>    7.0906    0.0000 </r>
       <r>    7.3426    0.0000 </r>
       <r>    7.4641    0.0000 </r>
       <r>    8.0520    0.0000 </r>
       <r>    8.3478    0.0000 </r>
       <r>    8.5608    0.0000 </r>
       <r>    8.7152    0.0000 </r>
       <r>    8.8475    0.0000 </r>
      </set>
      <set comment="kpoint 42">
       <r>   -5.7480    1.0000 </r>
       <r>   -5.7377    1.0000 </r>
       <r>   -3.6784    1.0000 </r>
       <r>   -3.6613    1.0000 </r>
       <r>   -0.0970    1.0000 </r>
       <r>   -0.0867    1.0000 </r>
       <r>    2.7016    1.0000 </r>
       <r>    2.7093    1.0000 </r>
       <r>    3.0550    1.0000 </r>
       <r>    3.0628    1.0000 </r>
       <r>    3.5078    1.0000 </r>
       <r>    3.5121    1.0000 </r>
       <r>    4.4527    1.0000 </r>
       <r>    4.4563    1.0000 </r>
       <r>    5.4576    1.0000 </r>
       <r>    5.4644    1.0000 </r>
       <r>    7.1414    0.0000 </r>
       <r>    7.1522    0.0000 </r>
       <r>    7.9138    0.0000 </r>
       <r>    7.9231    0.0000 </r>
       <r>    8.4689    0.0000 </r>
       <r>    8.4737    0.0000 </r>
       <r>    8.8338    0.0000 </r>
       <r>    8.8364    0.0000 </r>
      </set>
      <set comment="kpoint 43">
       <r>   -5.7970    1.0000 </r>
       <r>   -4.7656    1.0000 </r>
       <r>   -4.7497    1.0000 </r>
       <r>   -2.1304    1.0000 </r>
       <r>   -1.7672    1.0000 </r>
       <r>    1.1510    1.0000 </r>
       <r>    1.1606    1.0000 </r>
       <r>    1.8936    1.0000 </r>
       <r>    2.7525    1.0000 </r>
       <r>    3.1739    1.0000 </r>
       <r>    3.1813    1.0000 </r>
       <r>    3.8907    1.0000 </r>
       <r>    4.3580    1.0000 </r>
       <r>    4.3658    1.0000 </r>
       <r>    4.7017    1.0000 </r>
       <r>    5.1109    1.0000 </r>
       <r>    7.3886    0.0000 </r>
       <r>    7.8870    0.0000 </r>
       <r>    8.2716    0.0000 </r>
       <r>    8.2836    0.0000 </r>
       <r>    8.6245    0.0000 </r>
       <r>    9.2922    0.0000 </r>
       <r>    9.5508    0.0000 </r>
       <r>    9.5532    0.0000 </r>
      </set>
      <set comment="kpoint 44">
       <r>   -5.7973    1.0000 </r>
       <r>   -4.7661    1.0000 </r>
       <r>   -4.7502    1.0000 </r>
       <r>   -2.1440    1.0000 </r>
       <r>   -1.7524    1.0000 </r>
       <r>    1.1552    1.0000 </r>
       <r>    1.1634    1.0000 </r>
       <r>    1.9015    1.0000 </r>
       <r>    2.7437    1.0000 </r>
       <r>    3.1727    1.0000 </r>
       <r>    3.1802    1.0000 </r>
       <r>    3.9062    1.0000 </r>
       <r>    4.3560    1.0000 </r>
       <r>    4.3647    1.0000 </r>
       <r>    4.7000    1.0000 </r>
       <r>    5.0936    1.0000 </r>
       <r>    7.3773    0.0000 </r>
       <r>    7.8893    0.0000 </r>
       <r>    8.2647    0.0000 </r>
       <r>    8.2769    0.0000 </r>
       <r>    8.6354    0.0000 </r>
       <r>    9.2894    0.0000 </r>
       <r>    9.5467    0.0000 </r>
       <r>    9.5518    0.0000 </r>
      </set>
      <set comment="kpoint 45">
       <r>   -5.7309    1.0000 </r>
       <r>   -5.2076    1.0000 </r>
       <r>   -4.1922    1.0000 </r>
       <r>   -2.7807    1.0000 </r>
       <r>   -1.0998    1.0000 </r>
       <r>    0.4348    1.0000 </r>
       <r>    1.8838    1.0000 </r>
       <r>    1.9932    1.0000 </r>
       <r>    2.6874    1.0000 </r>
       <r>    2.8504    1.0000 </r>
       <r>    3.3932    1.0000 </r>
       <r>    3.6793    1.0000 </r>
       <r>    3.7303    1.0000 </r>
       <r>    4.8165    1.0000 </r>
       <r>    5.0236    1.0000 </r>
       <r>    5.1341    1.0000 </r>
       <r>    7.4519    0.0000 </r>
       <r>    7.9232    0.0000 </r>
       <r>    8.1466    0.0000 </r>
       <r>    8.5475    0.0000 </r>
       <r>    8.7217    0.0000 </r>
       <r>    8.9182    0.0000 </r>
       <r>    9.0396    0.0000 </r>
       <r>    9.5257    0.0000 </r>
      </set>
      <set comment="kpoint 46">
       <r>   -5.7312    1.0000 </r>
       <r>   -5.2076    1.0000 </r>
       <r>   -4.1935    1.0000 </r>
[...]
       <r>   -2.2952    1.0000 </r>
       <r>   -2.0270    1.0000 </r>
       <r>   -2.0228    1.0000 </r>
       <r>   -1.4737    1.0000 </r>
       <r>   -1.4666    1.0000 </r>
       <r>   -1.3172    1.0000 </r>
       <r>    1.6870    1.0000 </r>
       <r>    1.6884    1.0000 </r>
       <r>    2.3062    1.0000 </r>
       <r>    2.3100    1.0000 </r>
       <r>    2.8193    1.0000 </r>
       <r>    2.8214    1.0000 </r>
       <r>    2.9550    1.0000 </r>
       <r>    2.9569    1.0000 </r>
       <r>    6.3640    0.0000 </r>
       <r>    6.6684    0.0000 </r>
       <r>    6.6729    0.0000 </r>
       <r>    6.6936    0.0000 </r>
       <r>    9.5426    0.0000 </r>
       <r>    9.5505    0.0000 </r>
       <r>   10.1731    0.0000 </r>
       <r>   10.1764    0.0000 </r>
      </set>
      <set comment="kpoint 136">
       <r>   -2.6778    1.0000 </r>
       <r>   -2.4427    1.0000 </r>
       <r>   -2.1910    1.0000 </r>
       <r>   -2.0855    1.0000 </r>
       <r>   -1.9260    1.0000 </r>
       <r>   -1.6261    1.0000 </r>
       <r>   -1.3634    1.0000 </r>
       <r>   -1.3150    1.0000 </r>
       <r>    1.7018    1.0000 </r>
       <r>    1.9123    1.0000 </r>
       <r>    2.3110    1.0000 </r>
       <r>    2.3899    1.0000 </r>
       <r>    2.5056    1.0000 </r>
       <r>    2.7439    1.0000 </r>
       <r>    2.8069    1.0000 </r>
       <r>    2.9861    1.0000 </r>
       <r>    6.5958    0.0000 </r>
       <r>    6.7352    0.0000 </r>
       <r>    7.0287    0.0000 </r>
       <r>    7.3619    0.0000 </r>
       <r>    8.2860    0.0000 </r>
       <r>    8.8620    0.0000 </r>
       <r>    9.0627    0.0000 </r>
       <r>    9.6668    0.0000 </r>
      </set>
      <set comment="kpoint 137">
       <r>   -2.6783    1.0000 </r>
       <r>   -2.4410    1.0000 </r>
       <r>   -2.1941    1.0000 </r>
       <r>   -2.0819    1.0000 </r>
       <r>   -1.9297    1.0000 </r>
       <r>   -1.6225    1.0000 </r>
       <r>   -1.3660    1.0000 </r>
       <r>   -1.3141    1.0000 </r>
       <r>    1.7035    1.0000 </r>
       <r>    1.9116    1.0000 </r>
       <r>    2.3128    1.0000 </r>
       <r>    2.3878    1.0000 </r>
       <r>    2.5034    1.0000 </r>
       <r>    2.7440    1.0000 </r>
       <r>    2.8064    1.0000 </r>
       <r>    2.9882    1.0000 </r>
       <r>    6.5987    0.0000 </r>
       <r>    6.7356    0.0000 </r>
       <r>    7.0285    0.0000 </r>
       <r>    7.3591    0.0000 </r>
       <r>    8.2831    0.0000 </r>
       <r>    8.8610    0.0000 </r>
       <r>    9.0636    0.0000 </r>
       <r>    9.6698    0.0000 </r>
      </set>
      <set comment="kpoint 138">
       <r>   -2.5841    1.0000 </r>
       <r>   -2.5757    1.0000 </r>
       <r>   -2.1319    1.0000 </r>
       <r>   -2.1242    1.0000 </r>
       <r>   -1.7908    1.0000 </r>
       <r>   -1.7865    1.0000 </r>
       <r>   -1.3237    1.0000 </r>
       <r>   -1.3168    1.0000 </r>
       <r>    1.9592    1.0000 </r>
       <r>    1.9614    1.0000 </r>
       <r>    2.3088    1.0000 </r>
       <r>    2.3102    1.0000 </r>
       <r>    2.5154    1.0000 </r>
       <r>    2.5165    1.0000 </r>
       <r>    2.7998    1.0000 </r>
       <r>    2.8045    1.0000 </r>
       <r>    7.2124    0.0000 </r>
       <r>    7.2159    0.0000 </r>
       <r>    7.6511    0.0000 </r>
       <r>    7.6519    0.0000 </r>
       <r>    7.8944    0.0000 </r>
       <r>    7.8953    0.0000 </r>
       <r>    8.4115    0.0000 </r>
       <r>    8.4145    0.0000 </r>
      </set>
     </set>
    </set>
   </array>
  </eigenvalues>
  <separator name="orbital magnetization" >
   <v name="MAGDIPOLOUT">      0.00000000      0.00000000      0.00000000</v>
  </separator>
  <dos>
   <i name="efermi">      5.83662506 </i>
   <total>
    <array>
     <dimension dim="1">gridpoints</dimension>
     <dimension dim="2">spin</dimension>
     <field>energy</field>
     <field>total</field>
     <field>integrated</field>
     <set>
      <set comment="spin 1">
       <r>    -6.9957     0.0000     0.0000 </r>
       <r>    -6.9340     0.0000     0.0000 </r>
       <r>    -6.8724     0.0000     0.0000 </r>
       <r>    -6.8107     0.0000     0.0000 </r>
       <r>    -6.7490     0.0000     0.0000 </r>
       <r>    -6.6874     0.0000     0.0000 </r>
       <r>    -6.6257     0.0000     0.0000 </r>
       <r>    -6.5641     0.0000     0.0000 </r>
       <r>    -6.5024     0.0000     0.0000 </r>
       <r>    -6.4408     0.0000     0.0000 </r>
       <r>    -6.3791     0.0000     0.0000 </r>
       <r>    -6.3174     0.0000     0.0000 </r>
       <r>    -6.2558     0.0000     0.0000 </r>
       <r>    -6.1941     0.0000     0.0000 </r>
       <r>    -6.1325     0.0670     0.0041 </r>
       <r>    -6.0708     0.3896     0.0282 </r>
       <r>    -6.0092     0.6141     0.0660 </r>
       <r>    -5.9475     0.3687     0.0887 </r>
       <r>    -5.8858     0.4268     0.1151 </r>
       <r>    -5.8242     0.4044     0.1400 </r>
       <r>    -5.7625     1.5549     0.2359 </r>
       <r>    -5.7009     1.6032     0.3347 </r>
       <r>    -5.6392     0.0000     0.3347 </r>
       <r>    -5.5776     0.7432     0.3805 </r>
       <r>    -5.5159     1.7339     0.4875 </r>
       <r>    -5.4543     1.1852     0.5606 </r>
       <r>    -5.3926     1.3652     0.6447 </r>
       <r>    -5.3309     1.1204     0.7138 </r>
       <r>    -5.2693     1.0063     0.7759 </r>
       <r>    -5.2076     1.5955     0.8742 </r>
       <r>    -5.1460     2.6418     1.0371 </r>
       <r>    -5.0843     0.0479     1.0401 </r>
       <r>    -5.0227     0.4868     1.0702 </r>
       <r>    -4.9610     3.0761     1.2598 </r>
       <r>    -4.8993     2.0382     1.3855 </r>
       <r>    -4.8377     1.5095     1.4786 </r>
       <r>    -4.7760     1.5939     1.5769 </r>
       <r>    -4.7144     2.6362     1.7394 </r>
       <r>    -4.6527     2.1751     1.8735 </r>
       <r>    -4.5911     0.5106     1.9050 </r>
       <r>    -4.5294     1.3139     1.9861 </r>
       <r>    -4.4677     1.8936     2.1028 </r>
       <r>    -4.4061     2.7961     2.2752 </r>
       <r>    -4.3444     2.6113     2.4363 </r>
       <r>    -4.2828     2.0405     2.5622 </r>
       <r>    -4.2211     3.1519     2.7565 </r>
       <r>    -4.1595     3.9594     3.0006 </r>
       <r>    -4.0978     2.0715     3.1284 </r>
       <r>    -4.0361     0.9325     3.1860 </r>
       <r>    -3.9745     3.0867     3.3763 </r>
       <r>    -3.9128     2.6232     3.5381 </r>
       <r>    -3.8512     2.5605     3.6960 </r>
       <r>    -3.7895     2.6442     3.8590 </r>
       <r>    -3.7279     4.9638     4.1651 </r>
       <r>    -3.6662     5.6950     4.5162 </r>
       <r>    -3.6046     2.1185     4.6469 </r>
       <r>    -3.5429     2.2376     4.7848 </r>
       <r>    -3.4812     3.6958     5.0127 </r>
       <r>    -3.4196     4.7692     5.3068 </r>
       <r>    -3.3579     1.7751     5.4163 </r>
       <r>    -3.2963     2.0280     5.5413 </r>
       <r>    -3.2346     2.1391     5.6733 </r>
       <r>    -3.1730     2.6361     5.8359 </r>
       <r>    -3.1113     6.4066     6.2311 </r>
       <r>    -3.0496     1.5577     6.3272 </r>
       <r>    -2.9880     0.6325     6.3662 </r>
       <r>    -2.9263     1.5163     6.4597 </r>
       <r>    -2.8647     2.1117     6.5899 </r>
       <r>    -2.8030     3.6697     6.8162 </r>
       <r>    -2.7414     2.7797     6.9876 </r>
       <r>    -2.6797     0.5521     7.0216 </r>
       <r>    -2.6180     4.1964     7.2804 </r>
       <r>    -2.5564     2.5611     7.4383 </r>
       <r>    -2.4947     1.2000     7.5124 </r>
       <r>    -2.4331     1.6165     7.6120 </r>
       <r>    -2.3714     0.5944     7.6488 </r>
       <r>    -2.3098     0.0859     7.6541 </r>
       <r>    -2.2481     0.8817     7.7084 </r>
       <r>    -2.1864     1.3380     7.7909 </r>
       <r>    -2.1248     0.9348     7.8486 </r>
       <r>    -2.0631     0.9763     7.9088 </r>
       <r>    -2.0015     0.8556     7.9617 </r>
       <r>    -1.9398     1.1727     8.0340 </r>
       <r>    -1.8782     1.4235     8.1218 </r>
       <r>    -1.8165     0.2364     8.1364 </r>
       <r>    -1.7549     0.8914     8.1913 </r>
       <r>    -1.6932     0.5441     8.2249 </r>
       <r>    -1.6315     0.5275     8.2574 </r>
       <r>    -1.5699     0.4496     8.2851 </r>
       <r>    -1.5082     0.4951     8.3156 </r>
       <r>    -1.4466     0.5762     8.3512 </r>
       <r>    -1.3849     1.0171     8.4140 </r>
       <r>    -1.3233     2.3490     8.5588 </r>
       <r>    -1.2616     4.6761     8.8471 </r>
       <r>    -1.1999     2.1339     8.9787 </r>
       <r>    -1.1383     1.0313     9.0423 </r>
       <r>    -1.0766     6.6098     9.4500 </r>
       <r>    -1.0150     5.7977     9.8075 </r>
       <r>    -0.9533     4.9307    10.1116 </r>
       <r>    -0.8917     4.8917    10.4132 </r>
       <r>    -0.8300     4.3586    10.6819 </r>
       <r>    -0.7683     4.4344    10.9554 </r>
       <r>    -0.7067     4.9121    11.2583 </r>
       <r>    -0.6450     3.6340    11.4823 </r>
       <r>    -0.5834     1.2039    11.5566 </r>
       <r>    -0.5217     1.9105    11.6744 </r>
       <r>    -0.4601     1.8513    11.7886 </r>
       <r>    -0.3984     3.3745    11.9966 </r>
       <r>    -0.3367     1.2071    12.0711 </r>
       <r>    -0.2751     3.4088    12.2812 </r>
       <r>    -0.2134     4.9197    12.5846 </r>
       <r>    -0.1518     0.5546    12.6188 </r>
       <r>    -0.0901     0.9204    12.6756 </r>
       <r>    -0.0285     2.9241    12.8559 </r>
       <r>     0.0332     2.8701    13.0328 </r>
       <r>     0.0948     1.4715    13.1235 </r>
       <r>     0.1565     0.3811    13.1470 </r>
       <r>     0.2182     0.3433    13.1682 </r>
       <r>     0.2798     2.6384    13.3309 </r>
       <r>     0.3415     2.2260    13.4682 </r>
       <r>     0.4031     1.1864    13.5413 </r>
       <r>     0.4648     2.3021    13.6833 </r>
       <r>     0.5264     0.9029    13.7390 </r>
       <r>     0.5881     0.8455    13.7911 </r>
       <r>     0.6498     2.3768    13.9377 </r>
       <r>     0.7114     0.5734    13.9731 </r>
       <r>     0.7731     0.2350    13.9876 </r>
       <r>     0.8347     1.0687    14.0535 </r>
       <r>     0.8964     2.3033    14.1956 </r>
       <r>     0.9580     1.7934    14.3062 </r>
       <r>     1.0197     0.7307    14.3512 </r>
       <r>     1.0814     0.0000    14.3512 </r>
       <r>     1.1430     0.1852    14.3627 </r>
       <r>     1.2047     3.1616    14.5576 </r>
       <r>     1.2663     1.1027    14.6256 </r>
       <r>     1.3280     0.5096    14.6570 </r>
       <r>     1.3896     0.1733    14.6677 </r>
       <r>     1.4513     1.4157    14.7550 </r>
       <r>     1.5130     2.1696    14.8888 </r>
       <r>     1.5746     3.1228    15.0813 </r>
       <r>     1.6363     5.1751    15.4004 </r>
       <r>     1.6979     7.4880    15.8622 </r>
       <r>     1.7596     3.0885    16.0527 </r>
       <r>     1.8212     3.8850    16.2922 </r>
       <r>     1.8829     2.7744    16.4633 </r>
       <r>     1.9445     6.4690    16.8622 </r>
       <r>     2.0062     5.8858    17.2251 </r>
       <r>     2.0679     2.4114    17.3739 </r>
       <r>     2.1295     2.6923    17.5399 </r>
       <r>     2.1912     6.2486    17.9252 </r>
       <r>     2.2528     1.2469    18.0021 </r>
       <r>     2.3145     7.4454    18.4612 </r>
       <r>     2.3761     4.2103    18.7208 </r>
       <r>     2.4378     4.1266    18.9753 </r>
       <r>     2.4995     2.3483    19.1201 </r>
       <r>     2.5611     4.9640    19.4262 </r>
       <r>     2.6228     3.7881    19.6598 </r>
       <r>     2.6844     3.9011    19.9003 </r>
       <r>     2.7461     7.7230    20.3765 </r>
       <r>     2.8077     5.3235    20.7049 </r>
       <r>     2.8694     4.1689    20.9619 </r>
       <r>     2.9311     4.9512    21.2673 </r>
       <r>     2.9927     6.6299    21.6762 </r>
       <r>     3.0544     5.2188    21.9980 </r>
       <r>     3.1160     9.4994    22.5838 </r>
       <r>     3.1777     6.2216    22.9675 </r>
       <r>     3.2393     5.3623    23.2981 </r>
       <r>     3.3010     1.2354    23.3744 </r>
       <r>     3.3627     3.8235    23.6101 </r>
       <r>     3.4243     7.0283    24.0435 </r>
       <r>     3.4860     9.6423    24.6382 </r>
       <r>     3.5476     7.5870    25.1062 </r>
       <r>     3.6093     3.8018    25.3406 </r>
       <r>     3.6709     4.4287    25.6137 </r>
       <r>     3.7326     4.4163    25.8861 </r>
       <r>     3.7942     3.4694    26.1000 </r>
       <r>     3.8559     4.5170    26.3785 </r>
       <r>     3.9176     8.8893    26.9268 </r>
       <r>     3.9792     5.3701    27.2580 </r>
       <r>     4.0409     7.1912    27.7015 </r>
       <r>     4.1025     3.1575    27.8963 </r>
       <r>     4.1642     1.4782    27.9875 </r>
       <r>     4.2258     4.2067    28.2469 </r>
       <r>     4.2875     5.2075    28.5680 </r>
       <r>     4.3492     7.6354    29.0388 </r>
       <r>     4.4108     5.2189    29.3606 </r>
       <r>     4.4725     3.7719    29.5932 </r>
       <r>     4.5341     3.9531    29.8370 </r>
       <r>     4.5958     4.2624    30.0998 </r>
       <r>     4.6574     3.5220    30.3169 </r>
       <r>     4.7191     2.8487    30.4926 </r>
       <r>     4.7808     2.8866    30.6706 </r>
       <r>     4.8424     1.6559    30.7727 </r>
       <r>     4.9041     2.5394    30.9293 </r>
       <r>     4.9657     2.3680    31.0754 </r>
       <r>     5.0274     2.9810    31.2593 </r>
       <r>     5.0890     1.6777    31.3627 </r>
       <r>     5.1507     2.7839    31.5343 </r>
       <r>     5.2124     1.0449    31.5989 </r>
       <r>     5.2740     0.6105    31.6366 </r>
       <r>     5.3357     0.5787    31.6723 </r>
       <r>     5.3973     1.2237    31.7477 </r>
       <r>     5.4590     0.9916    31.8088 </r>
       <r>     5.5206     1.2897    31.8884 </r>
       <r>     5.5823     0.3298    31.9087 </r>
       <r>     5.6439     1.0114    31.9711 </r>
       <r>     5.7056     0.0372    31.9734 </r>
       <r>     5.7673     0.4051    31.9983 </r>
       <r>     5.8289     0.0268    32.0000 </r>
       <r>     5.8906     0.0000    32.0000 </r>
       <r>     5.9522     0.0000    32.0000 </r>
       <r>     6.0139     0.0000    32.0000 </r>
       <r>     6.0755     0.0000    32.0000 </r>
       <r>     6.1372     0.0000    32.0000 </r>
       <r>     6.1989     0.0000    32.0000 </r>
       <r>     6.2605     0.0000    32.0000 </r>
       <r>     6.3222     0.0001    32.0000 </r>
       <r>     6.3838     0.4809    32.0297 </r>
       <r>     6.4455     0.3226    32.0496 </r>
       <r>     6.5071     0.1340    32.0578 </r>
       <r>     6.5688     1.0162    32.1205 </r>
       <r>     6.6305     0.9928    32.1818 </r>
       <r>     6.6921     1.3922    32.2677 </r>
       <r>     6.7538     1.8797    32.3836 </r>
       <r>     6.8154     2.7231    32.5516 </r>
       <r>     6.8771     0.3051    32.5705 </r>
       <r>     6.9387     0.6635    32.6114 </r>
       <r>     7.0004     1.1356    32.6814 </r>
       <r>     7.0621     3.7972    32.9156 </r>
       <r>     7.1237     1.3650    32.9997 </r>
       <r>     7.1854     3.1294    33.1927 </r>
       <r>     7.2470     2.6324    33.3550 </r>
       <r>     7.3087     2.1756    33.4892 </r>
       <r>     7.3703     4.1983    33.7480 </r>
       <r>     7.4320     3.3215    33.9529 </r>
       <r>     7.4936     2.5258    34.1087 </r>
       <r>     7.5553     5.1520    34.4263 </r>
       <r>     7.6170     0.7258    34.4712 </r>
       <r>     7.6786     5.6241    34.8180 </r>
       <r>     7.7403     5.7567    35.1730 </r>
       <r>     7.8019     5.9042    35.5372 </r>
       <r>     7.8636     5.5509    35.8795 </r>
       <r>     7.9252     4.4141    36.1518 </r>
       <r>     7.9869     3.1264    36.3446 </r>
       <r>     8.0486     8.9228    36.8947 </r>
       <r>     8.1102     4.3675    37.1645 </r>
       <r>     8.1719     9.9221    37.7763 </r>
       <r>     8.2335     2.7966    37.9487 </r>
       <r>     8.2952     5.4072    38.2821 </r>
       <r>     8.3568     7.5316    38.7465 </r>
       <r>     8.4185     4.0504    38.9963 </r>
       <r>     8.4802     4.6123    39.2807 </r>
       <r>     8.5418     4.3566    39.5494 </r>
       <r>     8.6035     5.2953    39.8759 </r>
       <r>     8.6651     5.8216    40.2348 </r>
       <r>     8.7268     3.7920    40.4687 </r>
       <r>     8.7884     3.4097    40.6789 </r>
       <r>     8.8501     3.6243    40.9024 </r>
       <r>     8.9118     4.5539    41.1833 </r>
       <r>     8.9734     5.5124    41.5232 </r>
       <r>     9.0351    10.8828    42.1943 </r>
       <r>     9.0967    11.6671    42.9139 </r>
       <r>     9.1584     8.2518    43.4227 </r>
       <r>     9.2200     2.8994    43.6016 </r>
       <r>     9.2817     5.9724    43.9698 </r>
       <r>     9.3433     8.1832    44.4745 </r>
       <r>     9.4050     6.8080    44.8944 </r>
       <r>     9.4667     6.4645    45.2930 </r>
       <r>     9.5283     3.2193    45.4918 </r>
       <r>     9.5900     7.4516    45.9512 </r>
       <r>     9.6516     2.1345    46.0829 </r>
       <r>     9.7133     2.9811    46.2668 </r>
       <r>     9.7749     3.8442    46.5039 </r>
       <r>     9.8366     1.2035    46.5781 </r>
       <r>     9.8983     2.5450    46.7351 </r>
       <r>     9.9599     5.5246    47.0758 </r>
       <r>    10.0216     1.5837    47.1735 </r>
       <r>    10.0832     1.7361    47.2806 </r>
       <r>    10.1449     2.0162    47.4049 </r>
       <r>    10.2065     0.5361    47.4380 </r>
       <r>    10.2682     0.5859    47.4741 </r>
       <r>    10.3299     2.0918    47.6031 </r>
       <r>    10.3915     0.5374    47.6363 </r>
       <r>    10.4532     0.3837    47.6600 </r>
       <r>    10.5148     2.1679    47.7937 </r>
       <r>    10.5765     1.1881    47.8669 </r>
       <r>    10.6381     1.0904    47.9342 </r>
       <r>    10.6998     1.0671    48.0000 </r>
       <r>    10.7615     0.0000    48.0000 </r>
       <r>    10.8231     0.0000    48.0000 </r>
       <r>    10.8848     0.0000    48.0000 </r>
       <r>    10.9464     0.0000    48.0000 </r>
       <r>    11.0081     0.0000    48.0000 </r>
       <r>    11.0697     0.0000    48.0000 </r>
       <r>    11.1314     0.0000    48.0000 </r>
       <r>    11.1930     0.0000    48.0000 </r>
       <r>    11.2547     0.0000    48.0000 </r>
       <r>    11.3164     0.0000    48.0000 </r>
       <r>    11.3780     0.0000    48.0000 </r>
       <r>    11.4397     0.0000    48.0000 </r>
       <r>    11.5013     0.0000    48.0000 </r>
      </set>
     </set>
    </array>
   </total>
  </dos>
 </calculation>
 <structure name="finalpos" >
  <crystal>
   <varray name="basis" >
    <v>       0.00000000       0.00000000     -10.88740475 </v>
    <v>      -2.72185119       2.72185119      -0.00000000 </v>
    <v>       2.72185119       2.72185119       0.00000000 </v>
   </varray>
   <i name="volume">    161.31810740 </i>
   <varray name="rec_basis" >
    <v>       0.00000000      -0.00000000      -0.09184925 </v>
    <v>      -0.18369851       0.18369851       0.00000000 </v>
    <v>       0.18369851       0.18369851       0.00000000 </v>
   </varray>
  </crystal>
  <varray name="positions" >
   <v>       0.00086596       0.00086596       0.00000000 </v>
   <v>       0.75000000       0.50000000       0.50000000 </v>
   <v>       0.50000000       0.00000000       0.00000000 </v>
   <v>       0.25000000       0.50000000       0.50000000 </v>
   <v>       0.87500000       0.00000000       0.50000000 </v>
   <v>       0.62500000       0.50000000       0.00000000 </v>
   <v>       0.37500000       0.00000000       0.50000000 </v>
   <v>       0.12500000       0.50000000       0.00000000 </v>
  </varray>
 </structure>
</modeling>
