<?xml version="1.0" encoding="ISO-8859-1"?>
<modeling>
 <generator>
  <i name="program" type="string">vasp </i>
  <i name="version" type="string">6.4.3  </i>
  <i name="subversion" type="string">19Mar24 (build Jun 20 2024 15:56:09) complex                          parallel </i>
  <i name="platform" type="string">LinuxNV_CrayMPICH </i>
  <i name="date" type="string">2025 01 13 </i>
  <i name="time" type="string">17:57:38 </i>
 </generator>
 <incar>
  <i type="string" name="PREC">Accurate</i>
  <i type="int" name="IBRION">    -1</i>
  <i name="EDIFF">      0.00000001</i>
  <i type="int" name="NSW">     0</i>
  <i name="ENCUT">    500.00000000</i>
  <i type="logical" name="LREAL"> F  </i>
  <i type="int" name="ISMEAR">     0</i>
  <i name="SIGMA">      0.01000000</i>
  <i type="logical" name="LWAVE"> F  </i>
  <i type="logical" name="LCHARG"> F  </i>
 </incar>
 <primitive_cell>
  <structure name="primitive_cell" >
   <crystal>
    <varray name="basis" >
     <v>       0.00000000       0.00000000     -10.88740475 </v>
     <v>      -2.72185119       2.72185119      -0.00000000 </v>
     <v>       2.72185119       2.72185119       0.00000000 </v>
    </varray>
    <i name="volume">    161.31810740 </i>
    <varray name="rec_basis" >
     <v>       0.00000000      -0.00000000      -0.09184925 </v>
     <v>      -0.18369851       0.18369851       0.00000000 </v>
     <v>       0.18369851       0.18369851       0.00000000 </v>
    </varray>
   </crystal>
   <varray name="positions" >
    <v>       0.99913404       0.99913404       1.00000000 </v>
    <v>       0.75000000       0.50000000       0.50000000 </v>
    <v>       0.50000000       1.00000000       0.00000000 </v>
    <v>       0.25000000       0.50000000       0.50000000 </v>
    <v>       0.87500000       1.00000000       0.50000000 </v>
    <v>       0.62500000       0.50000000       1.00000000 </v>
    <v>       0.37500000       1.00000000       0.50000000 </v>
    <v>       0.12500000       0.50000000       1.00000000 </v>
   </varray>
  </structure>
  <varray name="primitive_index" >
   <v type="int" >        1 </v>
   <v type="int" >        2 </v>
   <v type="int" >        3 </v>
   <v type="int" >        4 </v>
   <v type="int" >        5 </v>
   <v type="int" >        6 </v>
   <v type="int" >        7 </v>
   <v type="int" >        8 </v>
  </varray>
 </primitive_cell>
 <kpoints>
  <generation param="Gamma">
   <v type="int" name="divisions">       4       11       11 </v>
   <v name="usershift">      0.00000000       0.00000000       0.00000000 </v>
   <v name="genvec1">      0.25000000      -0.00000000       0.00000000 </v>
   <v name="genvec2">     -0.00000000       0.09090909       0.00000000 </v>
   <v name="genvec3">     -0.00000000       0.00000000       0.09090909 </v>
   <v name="shift">      0.00000000       0.00000000       0.00000000 </v>
  </generation>
  <varray name="kpointlist" >
   <v>       0.00000000       0.00000000       0.00000000 </v>
   <v>       0.25000000       0.00000000       0.00000000 </v>
   <v>       0.50000000       0.00000000       0.00000000 </v>
   <v>       0.00000000       0.09090909       0.00000000 </v>
   <v>       0.00000000       0.00000000       0.09090909 </v>
   <v>       0.25000000       0.09090909       0.00000000 </v>
   <v>       0.25000000       0.00000000       0.09090909 </v>
   <v>       0.25000000      -0.09090909       0.00000000 </v>
   <v>       0.50000000       0.09090909       0.00000000 </v>
   <v>       0.50000000       0.00000000       0.09090909 </v>
   <v>       0.00000000       0.18181818       0.00000000 </v>
   <v>       0.00000000       0.00000000       0.18181818 </v>
   <v>       0.25000000       0.18181818       0.00000000 </v>
   <v>       0.25000000       0.00000000       0.18181818 </v>
   <v>       0.25000000      -0.18181818       0.00000000 </v>
   <v>       0.50000000       0.18181818       0.00000000 </v>
   <v>       0.50000000       0.00000000       0.18181818 </v>
   <v>       0.00000000       0.27272727       0.00000000 </v>
   <v>       0.00000000       0.00000000       0.27272727 </v>
   <v>       0.25000000       0.27272727       0.00000000 </v>
   <v>       0.25000000       0.00000000       0.27272727 </v>
   <v>       0.25000000      -0.27272727       0.00000000 </v>
   <v>       0.50000000       0.27272727       0.00000000 </v>
   <v>       0.50000000       0.00000000       0.27272727 </v>
   <v>       0.00000000       0.36363636       0.00000000 </v>
   <v>       0.00000000       0.00000000       0.36363636 </v>
   <v>       0.25000000       0.36363636       0.00000000 </v>
   <v>       0.25000000       0.00000000       0.36363636 </v>
   <v>       0.25000000      -0.36363636       0.00000000 </v>
   <v>       0.50000000       0.36363636       0.00000000 </v>
   <v>       0.50000000       0.00000000       0.36363636 </v>
   <v>       0.00000000       0.45454545       0.00000000 </v>
   <v>       0.00000000       0.00000000       0.45454545 </v>
   <v>       0.25000000       0.45454545       0.00000000 </v>
   <v>       0.25000000       0.00000000       0.45454545 </v>
   <v>       0.25000000      -0.45454545       0.00000000 </v>
   <v>       0.50000000       0.45454545       0.00000000 </v>
   <v>       0.50000000       0.00000000       0.45454545 </v>
   <v>       0.00000000       0.09090909       0.09090909 </v>
   <v>       0.25000000       0.09090909       0.09090909 </v>
   <v>       0.25000000      -0.09090909       0.09090909 </v>
   <v>       0.50000000       0.09090909       0.09090909 </v>
   <v>       0.00000000       0.18181818       0.09090909 </v>
   <v>       0.00000000      -0.09090909       0.18181818 </v>
   <v>       0.25000000       0.18181818       0.09090909 </v>
   <v>       0.25000000      -0.09090909       0.18181818 </v>
   <v>       0.25000000      -0.18181818      -0.09090909 </v>
   <v>       0.25000000       0.09090909      -0.18181818 </v>
   <v>       0.50000000       0.18181818       0.09090909 </v>
   <v>       0.50000000      -0.09090909       0.18181818 </v>
   <v>       0.00000000       0.27272727       0.09090909 </v>
   <v>       0.00000000      -0.09090909       0.27272727 </v>
   <v>       0.25000000       0.27272727       0.09090909 </v>
   <v>       0.25000000      -0.09090909       0.27272727 </v>
   <v>       0.25000000      -0.27272727      -0.09090909 </v>
   <v>       0.25000000       0.09090909      -0.27272727 </v>
   <v>       0.50000000       0.27272727       0.09090909 </v>
   <v>       0.50000000      -0.09090909       0.27272727 </v>
   <v>       0.00000000       0.36363636       0.09090909 </v>
   <v>       0.00000000      -0.09090909       0.36363636 </v>
   <v>       0.25000000       0.36363636       0.09090909 </v>
   <v>       0.25000000      -0.09090909       0.36363636 </v>
   <v>       0.25000000      -0.36363636      -0.09090909 </v>
   <v>       0.25000000       0.09090909      -0.36363636 </v>
   <v>       0.50000000       0.36363636       0.09090909 </v>
   <v>       0.50000000      -0.09090909       0.36363636 </v>
   <v>       0.00000000       0.45454545       0.09090909 </v>
   <v>       0.00000000      -0.09090909       0.45454545 </v>
   <v>       0.25000000       0.45454545       0.09090909 </v>
   <v>       0.25000000      -0.09090909       0.45454545 </v>
   <v>       0.25000000      -0.45454545      -0.09090909 </v>
   <v>       0.25000000       0.09090909      -0.45454545 </v>
   <v>       0.50000000       0.45454545       0.09090909 </v>
   <v>       0.50000000      -0.09090909       0.45454545 </v>
   <v>       0.00000000       0.18181818       0.18181818 </v>
   <v>       0.25000000       0.18181818       0.18181818 </v>
   <v>       0.25000000      -0.18181818       0.18181818 </v>
   <v>       0.50000000       0.18181818       0.18181818 </v>
   <v>       0.00000000       0.27272727       0.18181818 </v>
   <v>       0.00000000      -0.18181818       0.27272727 </v>
   <v>       0.25000000       0.27272727       0.18181818 </v>
   <v>       0.25000000      -0.18181818       0.27272727 </v>
   <v>       0.25000000      -0.27272727      -0.18181818 </v>
   <v>       0.25000000       0.18181818      -0.27272727 </v>
   <v>       0.50000000       0.27272727       0.18181818 </v>
   <v>       0.50000000      -0.18181818       0.27272727 </v>
   <v>       0.00000000       0.36363636       0.18181818 </v>
   <v>       0.00000000      -0.18181818       0.36363636 </v>
   <v>       0.25000000       0.36363636       0.18181818 </v>
   <v>       0.25000000      -0.18181818       0.36363636 </v>
   <v>       0.25000000      -0.36363636      -0.18181818 </v>
   <v>       0.25000000       0.18181818      -0.36363636 </v>
   <v>       0.50000000       0.36363636       0.18181818 </v>
   <v>       0.50000000      -0.18181818       0.36363636 </v>
   <v>       0.00000000       0.45454545       0.18181818 </v>
   <v>       0.00000000      -0.18181818       0.45454545 </v>
   <v>       0.25000000       0.45454545       0.18181818 </v>
   <v>       0.25000000      -0.18181818       0.45454545 </v>
   <v>       0.25000000      -0.45454545      -0.18181818 </v>
   <v>       0.25000000       0.18181818      -0.45454545 </v>
   <v>       0.50000000       0.45454545       0.18181818 </v>
   <v>       0.50000000      -0.18181818       0.45454545 </v>
   <v>       0.00000000       0.27272727       0.27272727 </v>
   <v>       0.25000000       0.27272727       0.27272727 </v>
   <v>       0.25000000      -0.27272727       0.27272727 </v>
   <v>       0.50000000       0.27272727       0.27272727 </v>
   <v>       0.00000000       0.36363636       0.27272727 </v>
   <v>       0.00000000      -0.27272727       0.36363636 </v>
   <v>       0.25000000       0.36363636       0.27272727 </v>
   <v>       0.25000000      -0.27272727       0.36363636 </v>
   <v>       0.25000000      -0.36363636      -0.27272727 </v>
   <v>       0.25000000       0.27272727      -0.36363636 </v>
   <v>       0.50000000       0.36363636       0.27272727 </v>
   <v>       0.50000000      -0.27272727       0.36363636 </v>
   <v>       0.00000000       0.45454545       0.27272727 </v>
   <v>       0.00000000      -0.27272727       0.45454545 </v>
   <v>       0.25000000       0.45454545       0.27272727 </v>
   <v>       0.25000000      -0.27272727       0.45454545 </v>
   <v>       0.25000000      -0.45454545      -0.27272727 </v>
   <v>       0.25000000       0.27272727      -0.45454545 </v>
   <v>       0.50000000       0.45454545       0.27272727 </v>
   <v>       0.50000000      -0.27272727       0.45454545 </v>
   <v>       0.00000000       0.36363636       0.36363636 </v>
   <v>       0.25000000       0.36363636       0.36363636 </v>
   <v>       0.25000000      -0.36363636       0.36363636 </v>
   <v>       0.50000000       0.36363636       0.36363636 </v>
   <v>       0.00000000       0.45454545       0.36363636 </v>
   <v>       0.00000000      -0.36363636       0.45454545 </v>
   <v>       0.25000000       0.45454545       0.36363636 </v>
   <v>       0.25000000      -0.36363636       0.45454545 </v>
   <v>       0.25000000      -0.45454545      -0.36363636 </v>
   <v>       0.25000000       0.36363636      -0.45454545 </v>
   <v>       0.50000000       0.45454545       0.36363636 </v>
   <v>       0.50000000      -0.36363636       0.45454545 </v>
   <v>       0.00000000       0.45454545       0.45454545 </v>
   <v>       0.25000000       0.45454545       0.45454545 </v>
   <v>       0.25000000      -0.45454545       0.45454545 </v>
   <v>       0.50000000       0.45454545       0.45454545 </v>
  </varray>
  <varray name="weights" >
   <v>       0.00206612 </v>
   <v>       0.00413223 </v>
   <v>       0.00206612 </v>
   <v>       0.00413223 </v>
   <v>       0.00413223 </v>
   <v>       0.00413223 </v>
   <v>       0.00826446 </v>
   <v>       0.00413223 </v>
   <v>       0.00413223 </v>
   <v>       0.00413223 </v>
   <v>       0.00413223 </v>
   <v>       0.00413223 </v>
   <v>       0.00413223 </v>
   <v>       0.00826446 </v>
   <v>       0.00413223 </v>
   <v>       0.00413223 </v>
   <v>       0.00413223 </v>
   <v>       0.00413223 </v>
   <v>       0.00413223 </v>
   <v>       0.00413223 </v>
   <v>       0.00826446 </v>
   <v>       0.00413223 </v>
   <v>       0.00413223 </v>
   <v>       0.00413223 </v>
   <v>       0.00413223 </v>
   <v>       0.00413223 </v>
   <v>       0.00413223 </v>
   <v>       0.00826446 </v>
   <v>       0.00413223 </v>
   <v>       0.00413223 </v>
   <v>       0.00413223 </v>
   <v>       0.00413223 </v>
   <v>       0.00413223 </v>
   <v>       0.00413223 </v>
   <v>       0.00826446 </v>
   <v>       0.00413223 </v>
   <v>       0.00413223 </v>
   <v>       0.00413223 </v>
   <v>       0.00826446 </v>
   <v>       0.00826446 </v>
   <v>       0.00826446 </v>
   <v>       0.00826446 </v>
   <v>       0.00826446 </v>
   <v>       0.00826446 </v>
   <v>       0.00826446 </v>
   <v>       0.00826446 </v>
   <v>       0.00826446 </v>
   <v>       0.00826446 </v>
   <v>       0.00826446 </v>
   <v>       0.00826446 </v>
   <v>       0.00826446 </v>
   <v>       0.00826446 </v>
   <v>       0.00826446 </v>
   <v>       0.00826446 </v>
   <v>       0.00826446 </v>
   <v>       0.00826446 </v>
   <v>       0.00826446 </v>
   <v>       0.00826446 </v>
   <v>       0.00826446 </v>
   <v>       0.00826446 </v>
   <v>       0.00826446 </v>
   <v>       0.00826446 </v>
   <v>       0.00826446 </v>
   <v>       0.00826446 </v>
   <v>       0.00826446 </v>
   <v>       0.00826446 </v>
   <v>       0.00826446 </v>
   <v>       0.00826446 </v>
   <v>       0.00826446 </v>
   <v>       0.00826446 </v>
   <v>       0.00826446 </v>
   <v>       0.00826446 </v>
   <v>       0.00826446 </v>
   <v>       0.00826446 </v>
   <v>       0.00826446 </v>
   <v>       0.00826446 </v>
   <v>       0.00826446 </v>
   <v>       0.00826446 </v>
   <v>       0.00826446 </v>
   <v>       0.00826446 </v>
   <v>       0.00826446 </v>
   <v>       0.00826446 </v>
   <v>       0.00826446 </v>
   <v>       0.00826446 </v>
   <v>       0.00826446 </v>
   <v>       0.00826446 </v>
   <v>       0.00826446 </v>
   <v>       0.00826446 </v>
   <v>       0.00826446 </v>
   <v>       0.00826446 </v>
   <v>       0.00826446 </v>
   <v>       0.00826446 </v>
   <v>       0.00826446 </v>
   <v>       0.00826446 </v>
   <v>       0.00826446 </v>
   <v>       0.00826446 </v>
   <v>       0.00826446 </v>
   <v>       0.00826446 </v>
   <v>       0.00826446 </v>
   <v>       0.00826446 </v>
   <v>       0.00826446 </v>
   <v>       0.00826446 </v>
   <v>       0.00826446 </v>
   <v>       0.00826446 </v>
   <v>       0.00826446 </v>
   <v>       0.00826446 </v>
   <v>       0.00826446 </v>
   <v>       0.00826446 </v>
   <v>       0.00826446 </v>
   <v>       0.00826446 </v>
   <v>       0.00826446 </v>
   <v>       0.00826446 </v>
   <v>       0.00826446 </v>
   <v>       0.00826446 </v>
   <v>       0.00826446 </v>
   <v>       0.00826446 </v>
   <v>       0.00826446 </v>
   <v>       0.00826446 </v>
   <v>       0.00826446 </v>
   <v>       0.00826446 </v>
   <v>       0.00826446 </v>
   <v>       0.00826446 </v>
   <v>       0.00826446 </v>
   <v>       0.00826446 </v>
   <v>       0.00826446 </v>
   <v>       0.00826446 </v>
   <v>       0.00826446 </v>
   <v>       0.00826446 </v>
   <v>       0.00826446 </v>
   <v>       0.00826446 </v>
   <v>       0.00826446 </v>
   <v>       0.00826446 </v>
   <v>       0.00826446 </v>
   <v>       0.00826446 </v>
   <v>       0.00826446 </v>
   <v>       0.00826446 </v>
   <v>       0.00826446 </v>
   <v>       0.00826446 </v>
  </varray>
 </kpoints>
 <parameters>
  <separator name="general" >
   <i type="string" name="SYSTEM">unknown system</i>
   <i type="logical" name="LCOMPAT"> F  </i>
  </separator>
  <separator name="electronic" >
   <i type="string" name="PREC">accura</i>
   <i name="ENMAX">    500.00000000</i>
   <i name="ENAUG">    322.06900000</i>
   <i name="EDIFF">      0.00000001</i>
   <i type="int" name="IALGO">    38</i>
   <i type="int" name="IWAVPR">    10</i>
   <i type="int" name="NBANDS">    24</i>
   <i type="int" name="NBANDSLOW">    -1</i>
   <i type="int" name="NBANDSHIGH">    -1</i>
   <i name="NELECT">     32.00000000</i>
   <i type="int" name="TURBO">     0</i>
   <i type="int" name="IRESTART">     0</i>
   <i type="int" name="NREBOOT">     0</i>
   <i type="int" name="NMIN">     0</i>
   <i name="EREF">      0.00000000</i>
   <separator name="electronic smearing" >
    <i type="int" name="ISMEAR">     0</i>
    <i name="SIGMA">      0.01000000</i>
    <i name="KSPACING">      0.50000000</i>
    <i type="logical" name="KGAMMA"> T  </i>
    <i type="logical" name="KBLOWUP"> T  </i>
   </separator>
   <separator name="electronic projectors" >
    <i type="logical" name="LREAL"> F  </i>
    <v name="ROPT">      0.00000000</v>
    <i type="int" name="LMAXPAW">  -100</i>
    <i type="int" name="LMAXMIX">     2</i>
    <i type="logical" name="NLSPLINE"> F  </i>
   </separator>
   <separator name="electronic startup" >
    <i type="int" name="ISTART">     0</i>
    <i type="int" name="ICHARG">     2</i>
    <i type="int" name="INIWAV">     1</i>
   </separator>
   <separator name="electronic spin" >
    <i type="int" name="ISPIN">     1</i>
    <i type="logical" name="LNONCOLLINEAR"> F  </i>
    <v name="MAGMOM">      1.00000000      1.00000000      1.00000000      1.00000000      1.00000000      1.00000000      1.00000000      1.00000000</v>
    <i name="NUPDOWN">     -1.00000000</i>
    <i type="logical" name="LSORBIT"> F  </i>
    <v name="SAXIS">      0.00000000      0.00000000      1.00000000</v>
    <i type="logical" name="LSPIRAL"> F  </i>
    <v name="QSPIRAL">      0.00000000      0.00000000      0.00000000</v>
    <i type="logical" name="LZEROZ"> F  </i>
   </separator>
   <separator name="electronic exchange-correlation" >
    <i type="logical" name="LASPH"> F  </i>
   </separator>
   <separator name="electronic convergence" >
    <i type="int" name="NELM">    60</i>
    <i type="int" name="NELMDL">    -5</i>
    <i type="int" name="NELMIN">     2</i>
    <i name="ENINI">    500.00000000</i>
    <separator name="electronic convergence detail" >
     <i type="logical" name="LDIAG"> T  </i>
     <i type="logical" name="LSUBROT"> F  </i>
     <i name="WEIMIN">      0.00000000</i>
     <i name="EBREAK">      0.00000000</i>
     <i name="DEPER">      0.30000000</i>
     <i type="int" name="NRMM">     4</i>
     <i name="TIME">      0.40000000</i>
    </separator>
   </separator>
   <separator name="electronic mixer" >
    <i name="AMIX">      0.40000000</i>
    <i name="BMIX">      1.00000000</i>
    <i name="AMIN">      0.10000000</i>
    <i name="AMIX_MAG">      1.60000000</i>
    <i name="BMIX_MAG">      1.00000000</i>
    <separator name="electronic mixer details" >
     <i type="int" name="IMIX">     4</i>
     <i type="logical" name="MIXFIRST"> F  </i>
     <i type="int" name="MAXMIX">   -45</i>
     <i name="WC">    100.00000000</i>
     <i type="int" name="INIMIX">     1</i>
     <i type="int" name="MIXPRE">     1</i>
     <i type="int" name="MREMOVE">     5</i>
    </separator>
   </separator>
   <separator name="electronic dipolcorrection" >
    <i type="logical" name="LDIPOL"> F  </i>
    <i type="logical" name="LMONO"> F  </i>
    <i type="int" name="IDIPOL">     0</i>
    <i name="EPSILON">      1.00000000</i>
    <v name="DIPOL">   -100.00000000   -100.00000000   -100.00000000</v>
    <i name="EFIELD">      0.00000000</i>
    <i type="logical" name="LVACPOTAV"> F  </i>
   </separator>
  </separator>
  <separator name="grids" >
   <i type="int" name="NGX">    80</i>
   <i type="int" name="NGY">    28</i>
   <i type="int" name="NGZ">    28</i>
   <i type="int" name="NGXF">   160</i>
   <i type="int" name="NGYF">    56</i>
   <i type="int" name="NGZF">    56</i>
   <i type="logical" name="ADDGRID"> F  </i>
  </separator>
  <separator name="ionic" >
   <i type="int" name="NSW">     0</i>
   <i type="int" name="IBRION">    -1</i>
   <i type="int" name="MDALGO">     0</i>
   <i type="int" name="ISIF">     2</i>
   <i name="PSTRESS">      0.00000000</i>
   <i name="EDIFFG">      0.00000010</i>
   <i type="int" name="NFREE">     0</i>
   <i name="POTIM">      0.50000000</i>
   <i name="SMASS">     -3.00000000</i>
   <i name="SCALEE">      1.00000000</i>
  </separator>
  <separator name="ionic md" >
   <i name="TEBEG">      0.00010000</i>
   <i name="TEEND">      0.00010000</i>
   <i type="int" name="NBLOCK">     1</i>
   <i type="int" name="KBLOCK">     1</i>
   <i type="int" name="NPACO">   256</i>
   <i name="APACO">     10.00000000</i>
  </separator>
  <separator name="symmetry" >
   <i type="int" name="ISYM">     2</i>
   <i name="SYMPREC">      0.00001000</i>
  </separator>
  <separator name="dos" >
   <i type="int" name="LORBIT">     0</i>
   <v name="RWIGS">     -1.00000000</v>
   <i type="int" name="NEDOS">   301</i>
   <i name="EMIN">     10.00000000</i>
   <i name="EMAX">    -10.00000000</i>
   <i name="EFERMI">      0.00000000</i>
  </separator>
  <separator name="writing" >
   <i type="int" name="NWRITE">     2</i>
   <i type="logical" name="LWAVE"> F  </i>
   <i type="logical" name="LDOWNSAMPLE"> F  </i>
   <i type="logical" name="LCHARG"> F  </i>
   <i type="logical" name="LPARD"> F  </i>
   <i type="logical" name="LVTOT"> F  </i>
   <i type="logical" name="LVHAR"> F  </i>
   <i type="logical" name="LELF"> F  </i>
   <i type="logical" name="LOPTICS"> F  </i>
   <v name="STM">      0.00000000      0.00000000      0.00000000      0.00000000      0.00000000      0.00000000      0.00000000</v>
  </separator>
  <separator name="performance" >
   <i type="int" name="NPAR">     8</i>
   <i type="int" name="NSIM">     4</i>
   <i type="int" name="NBLK">    -1</i>
   <i type="logical" name="LPLANE"> T  </i>
   <i type="logical" name="LSCALAPACK"> T  </i>
   <i type="logical" name="LSCAAWARE"> F  </i>
   <i type="logical" name="LSCALU"> F  </i>
   <i type="logical" name="LASYNC"> F  </i>
   <i type="logical" name="LORBITALREAL"> F  </i>
  </separator>
  <separator name="miscellaneous" >
   <i type="int" name="IDIOT">     3</i>
   <i type="int" name="PHON_NSTRUCT">    -1</i>
   <i type="logical" name="LMUSIC"> F  </i>
   <v name="POMASS">     28.08500000</v>
   <v name="DARWINR">      0.00000000</v>
   <v name="DARWINV">      1.00000000</v>
   <i type="logical" name="LCORR"> T  </i>
  </separator>
  <i type="logical" name="GGA_COMPAT"> T  </i>
  <i type="logical" name="LBERRY"> F  </i>
  <i type="int" name="ICORELEVEL">     0</i>
  <i type="logical" name="LDAU"> F  </i>
  <i type="int" name="I_CONSTRAINED_M">     0</i>
  <separator name="electronic exchange-correlation" >
   <i type="string" name="GGA    ">PE</i>
   <i type="string" name="XC_C">1</i>
   <i type="int" name="VOSKOWN">     0</i>
   <i type="logical" name="LHFCALC"> F  </i>
   <i type="string" name="PRECFOCK"></i>
   <i type="logical" name="LSYMGRAD"> F  </i>
   <i type="logical" name="LHFONE"> F  </i>
   <i type="logical" name="LRHFCALC"> F  </i>
   <i type="logical" name="LTHOMAS"> F  </i>
   <i type="logical" name="LMODELHF"> F  </i>
   <i type="logical" name="LFOCKACE"> F  </i>
   <i name="ENCUT4O">     -1.00000000</i>
   <i type="int" name="EXXOEP">     0</i>
   <i type="int" name="FOURORBIT">     0</i>
   <i name="AEXX">      0.00000000</i>
   <i name="HFALPHA">      0.00000000</i>
   <i name="MCALPHA">      0.00000000</i>
   <i name="ALDAX">      1.00000000</i>
   <i name="AGGAX">      1.00000000</i>
   <i name="AMGGAX">      1.00000000</i>
   <i name="ALDAC">      1.00000000</i>
   <i name="AGGAC">      1.00000000</i>
   <i name="AMGGAC">      1.00000000</i>
   <i type="int" name="NKREDX">     1</i>
   <i type="int" name="NKREDY">     1</i>
   <i type="int" name="NKREDZ">     1</i>
   <i type="logical" name="SHIFTRED"> F  </i>
   <i type="logical" name="ODDONLY"> F  </i>
   <i type="logical" name="EVENONLY"> F  </i>
   <i type="int" name="LMAXFOCK">     0</i>
   <i type="int" name="NMAXFOCKAE">     0</i>
   <i type="logical" name="LFOCKAEDFT"> F  </i>
   <i name="HFSCREEN">      0.00000000</i>
   <i name="HFSCREENC">      0.00000000</i>
   <i type="int" name="NBANDSGWLOW">     0</i>
  </separator>
  <separator name="vdW DFT" >
   <i type="logical" name="LUSE_VDW"> F  </i>
   <i type="int" name="IVDW_NL">    -1</i>
   <i type="logical" name="LSPIN_VDW"> F  </i>
   <i name="ZAB_VDW">     -0.84910000</i>
   <i name="GAMMA_VDW">      1.39626340</i>
   <i name="ALPHA_VDW">      0.00000000</i>
   <i name="PARAM1">      0.12340000</i>
   <i name="PARAM2">      1.00000000</i>
   <i name="BPARAM">      6.30000000</i>
   <i name="CPARAM">      0.00930000</i>
  </separator>
  <separator name="model GW" >
   <i type="int" name="MODEL_GW">     0</i>
   <i name="MODEL_EPS0">     12.09885805</i>
   <i name="MODEL_ALPHA">      1.00000000</i>
  </separator>
  <separator name="linear response parameters" >
   <i type="logical" name="LEPSILON"> F  </i>
   <i type="logical" name="LRPA"> F  </i>
   <i type="logical" name="LNABLA"> F  </i>
   <i type="logical" name="LVEL"> F  </i>
   <i name="CSHIFT">      0.10000000</i>
   <i name="OMEGAMAX">     -1.00000000</i>
   <i name="DEG_THRESHOLD">      0.00200000</i>
   <i name="RTIME">     -0.10000000</i>
   <i name="WPLASMAI">      0.00000000</i>
   <v name="DFIELD">      0.00000000      0.00000000      0.00000000</v>
   <v name="WPLASMA">      0.00000000      0.00000000      0.00000000      0.00000000      0.00000000      0.00000000      0.00000000      0.00000000      0.00000000</v>
  </separator>
  <separator name="orbital magnetization" >
   <i type="logical" name="NUCIND"> F  </i>
   <v name="MAGPOS">      0.00000000      0.00000000      0.00000000</v>
   <i type="logical" name="LNICSALL"> T  </i>
   <i type="logical" name="ORBITALMAG"> F  </i>
   <i type="logical" name="LMAGBLOCH"> F  </i>
   <i type="logical" name="LCHIMAG"> F  </i>
   <i type="logical" name="LGAUGE"> T  </i>
   <i type="int" name="MAGATOM">     0</i>
   <v name="MAGDIPOL">      0.00000000      0.00000000      0.00000000</v>
   <v name="AVECCONST">      0.00000000      0.00000000      0.00000000</v>
  </separator>
  <separator name="response functions" >
   <i type="logical" name="LALL_IN_ONE"> F  </i>
   <i type="int" name="IALL_IN_ONE">    -1</i>
   <i type="int" name="NBANDS_WAVE">    -1</i>
   <i type="logical" name="LFINITE_TEMPERATURE"> F  </i>
   <i type="logical" name="LADDER"> F  </i>
   <i type="logical" name="LRPAFORCE"> F  </i>
   <i type="logical" name="LFXC"> F  </i>
   <i type="logical" name="LHARTREE"> T  </i>
   <i type="int" name="IBSE">     0</i>
   <v type="int" name="KPOINT">    -1     0     0     0</v>
   <i type="logical" name="LTCTC"> F  </i>
   <i type="logical" name="LTCTE"> F  </i>
   <i type="logical" name="LTETE"> F  </i>
   <i type="logical" name="LTRIPLET"> F  </i>
   <i type="logical" name="LFXCEPS"> F  </i>
   <i type="logical" name="LFXHEG"> F  </i>
   <i type="int" name="NATURALO">     2</i>
   <i type="logical" name="LHOLEGF"> F  </i>
   <i type="logical" name="L2ORDER"> F  </i>
   <i type="logical" name="LDMP1"> F  </i>
   <i type="logical" name="LMP2LT"> F  </i>
   <i type="logical" name="LSMP2LT"> F  </i>
   <i type="logical" name="LGWLF"> F  </i>
   <i name="ENCUTGW">     -1.60000002</i>
   <i name="ENCUTGWSOFT">     -1.60000002</i>
   <i name="ENCUTLF">     -1.00000000</i>
   <i type="logical" name="ESF_SPLINES"> F  </i>
   <i name="ESF_CONV">      0.01000000</i>
   <i type="int" name="ESF_NINTER">    15</i>
   <i type="int" name="LMAXMP2">    -1</i>
   <i name="SCISSOR">      0.00000000</i>
   <i type="int" name="NOMEGA">     0</i>
   <i type="int" name="NOMEGAR">     0</i>
   <i type="int" name="NBANDSGW">    -1</i>
   <i type="int" name="NBANDSO">    -1</i>
   <i type="int" name="NBANDSV">    -1</i>
   <i type="int" name="NELMGW">     1</i>
   <i type="int" name="NELMHF">     1</i>
   <i type="int" name="DIM">     3</i>
   <i type="int" name="IESPILON">     4</i>
   <i type="int" name="ANTIRES">     0</i>
   <i name="OMEGAMAX">    -30.00000000</i>
   <i name="OMEGAMIN">    -30.00000000</i>
   <i name="OMEGATL">   -200.00000000</i>
   <i type="int" name="OMEGAGRID">     0</i>
   <i name="CSHIFT">     -0.10000000</i>
   <i type="logical" name="LSELFENERGY"> F  </i>
   <i type="logical" name="LSPECTRAL"> F  </i>
   <i type="logical" name="LSPECTRALGW"> F  </i>
   <i type="logical" name="LSINGLES"> F  </i>
   <i type="logical" name="LFERMIGW"> F  </i>
   <i type="logical" name="ODDONLYGW"> F  </i>
   <i type="logical" name="EVENONLYGW"> F  </i>
   <i type="int" name="NKREDLFX">     1</i>
   <i type="int" name="NKREDLFY">     1</i>
   <i type="int" name="NKREDLFZ">     1</i>
   <i type="int" name="MAXMEM">  2800</i>
   <i type="int" name="TELESCOPE">     0</i>
   <i type="int" name="NTAUPAR">    -1</i>
   <i type="int" name="NOMEGAPAR">    -1</i>
   <i name="DAMP_NEWTON">      0.80000001</i>
   <i name="LAMBDA">      1.00000000</i>
  </separator>
  <separator name="External order field" >
   <i name="OFIELD_KAPPA">      0.00000000</i>
   <v name="OFIELD_K">      0.00000000      0.00000000      0.00000000</v>
   <i name="OFIELD_Q6_NEAR">      0.00000000</i>
   <i name="OFIELD_Q6_FAR">      0.00000000</i>
   <i name="OFIELD_A">      0.00000000</i>
  </separator>
  <separator name="optional k-points parameters" >
   <i type="int" name="KPOINTS_OPT_MODE">     1</i>
   <i type="logical" name="LKPOINTS_OPT"> F  </i>
  </separator>
 </parameters>
 <atominfo>
  <atoms>       8 </atoms>
  <types>       1 </types>
  <array name="atoms" >
   <dimension dim="1">ion</dimension>
   <field type="string">element</field>
   <field type="int">atomtype</field>
   <set>
    <rc><c>Si</c><c>   1</c></rc>
    <rc><c>Si</c><c>   1</c></rc>
    <rc><c>Si</c><c>   1</c></rc>
    <rc><c>Si</c><c>   1</c></rc>
    <rc><c>Si</c><c>   1</c></rc>
    <rc><c>Si</c><c>   1</c></rc>
    <rc><c>Si</c><c>   1</c></rc>
    <rc><c>Si</c><c>   1</c></rc>
   </set>
  </array>
  <array name="atomtypes" >
   <dimension dim="1">type</dimension>
   <field type="int">atomspertype</field>
   <field type="string">element</field>
   <field>mass</field>
   <field>valence</field>
   <field type="string">pseudopotential</field>
   <set>
    <rc><c>   8</c><c>Si</c><c>     28.08500000</c><c>      4.00000000</c><c>  PAW_PBE Si 05Jan2001                  </c></rc>
   </set>
  </array>
 </atominfo>
 <structure name="initialpos" >
  <crystal>
   <varray name="basis" >
    <v>       0.00000000       0.00000000     -10.88740475 </v>
    <v>      -2.72185119       2.72185119      -0.00000000 </v>
    <v>       2.72185119       2.72185119       0.00000000 </v>
   </varray>
   <i name="volume">    161.31810740 </i>
   <varray name="rec_basis" >
    <v>       0.00000000      -0.00000000      -0.09184925 </v>
    <v>      -0.18369851       0.18369851       0.00000000 </v>
    <v>       0.18369851       0.18369851       0.00000000 </v>
   </varray>
  </crystal>
  <varray name="positions" >
   <v>       0.99913404       0.99913404       0.00000000 </v>
   <v>       0.75000000       0.50000000       0.50000000 </v>
   <v>       0.50000000       0.00000000       0.00000000 </v>
   <v>       0.25000000       0.50000000       0.50000000 </v>
   <v>       0.87500000       0.00000000       0.50000000 </v>
   <v>       0.62500000       0.50000000       0.00000000 </v>
   <v>       0.37500000       0.00000000       0.50000000 </v>
   <v>       0.12500000       0.50000000       0.00000000 </v>
  </varray>
 </structure>
 <calculation>
  <scstep>
   <time name="dav">    0.70    0.70</time>
   <time name="total">    0.72    0.72</time>
   <energy>
    <i name="alphaZ">     13.35522965 </i>
    <i name="ewald">   -911.94974689 </i>
    <i name="hartreedc">    -44.46140040 </i>
    <i name="XCdc">    -74.52612311 </i>
    <i name="pawpsdc">    704.99039692 </i>
    <i name="pawaedc">   -564.24414232 </i>
    <i name="eentropy">     -0.00017123 </i>
    <i name="bandstr">    119.69015603 </i>
    <i name="atom">    824.53005375 </i>
    <i name="e_fr_energy">     67.38425240 </i>
    <i name="e_wo_entrp">     67.38442363 </i>
    <i name="e_0_energy">     67.38433801 </i>
   </energy>
  </scstep>
  <scstep>
   <time name="dav">    0.83    0.84</time>
   <time name="total">    0.83    0.84</time>
   <energy>
    <i name="e_fr_energy">    -38.95307421 </i>
    <i name="e_wo_entrp">    -38.95307421 </i>
    <i name="e_0_energy">    -38.95307421 </i>
   </energy>
  </scstep>
  <scstep>
   <time name="dav">    0.84    0.84</time>
   <time name="total">    0.84    0.84</time>
   <energy>
    <i name="e_fr_energy">    -44.00329454 </i>
    <i name="e_wo_entrp">    -44.00329454 </i>
    <i name="e_0_energy">    -44.00329454 </i>
   </energy>
  </scstep>
  <scstep>
   <time name="dav">    0.80    0.80</time>
   <time name="total">    0.80    0.81</time>
   <energy>
    <i name="e_fr_energy">    -44.09104361 </i>
    <i name="e_wo_entrp">    -44.09104361 </i>
    <i name="e_0_energy">    -44.09104361 </i>
   </energy>
  </scstep>
  <scstep>
   <time name="dav">    0.83    0.84</time>
   <time name="total">    0.86    0.87</time>
   <energy>
    <i name="e_fr_energy">    -44.09324891 </i>
    <i name="e_wo_entrp">    -44.09324891 </i>
    <i name="e_0_energy">    -44.09324891 </i>
   </energy>
  </scstep>
  <scstep>
   <time name="dav">    0.77    0.77</time>
   <time name="total">    0.81    0.82</time>
   <energy>
    <i name="e_fr_energy">    -43.60660963 </i>
    <i name="e_wo_entrp">    -43.60660963 </i>
    <i name="e_0_energy">    -43.60660963 </i>
   </energy>
  </scstep>
  <scstep>
   <time name="dav">    0.76    0.76</time>
   <time name="total">    0.81    0.81</time>
   <energy>
    <i name="e_fr_energy">    -43.38550686 </i>
    <i name="e_wo_entrp">    -43.38550686 </i>
    <i name="e_0_energy">    -43.38550686 </i>
   </energy>
  </scstep>
  <scstep>
   <time name="dav">    0.77    0.77</time>
   <time name="total">    0.82    0.82</time>
   <energy>
    <i name="e_fr_energy">    -43.38865241 </i>
    <i name="e_wo_entrp">    -43.38865241 </i>
    <i name="e_0_energy">    -43.38865241 </i>
   </energy>
  </scstep>
  <scstep>
   <time name="dav">    0.83    0.83</time>
   <time name="total">    0.87    0.88</time>
   <energy>
    <i name="e_fr_energy">    -43.38954807 </i>
    <i name="e_wo_entrp">    -43.38954807 </i>
    <i name="e_0_energy">    -43.38954807 </i>
   </energy>
  </scstep>
  <scstep>
   <time name="dav">    0.75    0.75</time>
   <time name="total">    0.80    0.81</time>
   <energy>
    <i name="e_fr_energy">    -43.38979353 </i>
    <i name="e_wo_entrp">    -43.38979353 </i>
    <i name="e_0_energy">    -43.38979353 </i>
   </energy>
  </scstep>
  <scstep>
   <time name="dav">    0.81    0.81</time>
   <time name="total">    0.86    0.86</time>
   <energy>
    <i name="e_fr_energy">    -43.38979262 </i>
    <i name="e_wo_entrp">    -43.38979262 </i>
    <i name="e_0_energy">    -43.38979262 </i>
   </energy>
  </scstep>
  <scstep>
   <time name="dav">    0.79    0.79</time>
   <time name="total">    0.83    0.84</time>
   <energy>
    <i name="e_fr_energy">    -43.38979375 </i>
    <i name="e_wo_entrp">    -43.38979375 </i>
    <i name="e_0_energy">    -43.38979375 </i>
   </energy>
  </scstep>
  <scstep>
   <time name="dav">    0.78    0.78</time>
   <time name="total">    0.83    0.83</time>
   <energy>
    <i name="e_fr_energy">    -43.38979350 </i>
    <i name="e_wo_entrp">    -43.38979350 </i>
    <i name="e_0_energy">    -43.38979350 </i>
   </energy>
  </scstep>
  <scstep>
   <time name="dav">    0.67    0.67</time>
   <time name="total">    0.72    0.72</time>
   <energy>
    <i name="e_fr_energy">    -43.38979358 </i>
    <i name="e_wo_entrp">    -43.38979358 </i>
    <i name="e_0_energy">    -43.38979358 </i>
   </energy>
  </scstep>
  <scstep>
   <time name="dav">    0.62    0.62</time>
   <time name="total">    0.63    0.64</time>
   <energy>
    <i name="alphaZ">     13.35522965 </i>
    <i name="ewald">   -911.94974689 </i>
    <i name="hartreedc">    -60.02965822 </i>
    <i name="XCdc">    -71.99025660 </i>
    <i name="pawpsdc">   3421.48889109 </i>
    <i name="pawaedc">  -3281.61214288 </i>
    <i name="eentropy">     -0.00000000 </i>
    <i name="bandstr">     22.81783652 </i>
    <i name="atom">    824.53005375 </i>
    <i name="e_fr_energy">    -43.38979358 </i>
    <i name="e_wo_entrp">    -43.38979358 </i>
    <i name="e_0_energy">    -43.38979358 </i>
   </energy>
  </scstep>
  <structure>
   <crystal>
    <varray name="basis" >
     <v>       0.00000000       0.00000000     -10.88740475 </v>
     <v>      -2.72185119       2.72185119      -0.00000000 </v>
     <v>       2.72185119       2.72185119       0.00000000 </v>
    </varray>
    <i name="volume">    161.31810740 </i>
    <varray name="rec_basis" >
     <v>       0.00000000      -0.00000000      -0.09184925 </v>
     <v>      -0.18369851       0.18369851       0.00000000 </v>
     <v>       0.18369851       0.18369851       0.00000000 </v>
    </varray>
   </crystal>
   <varray name="positions" >
    <v>       0.99913404       0.99913404       0.00000000 </v>
    <v>       0.75000000       0.50000000       0.50000000 </v>
    <v>       0.50000000       0.00000000       0.00000000 </v>
    <v>       0.25000000       0.50000000       0.50000000 </v>
    <v>       0.87500000       0.00000000       0.50000000 </v>
    <v>       0.62500000       0.50000000       0.00000000 </v>
    <v>       0.37500000       0.00000000       0.50000000 </v>
    <v>       0.12500000       0.50000000       0.00000000 </v>
   </varray>
  </structure>
  <varray name="forces" >
   <v>      -0.02845360       0.02845360      -0.14346200 </v>
   <v>      -0.00094188       0.00094188       0.00867127 </v>
   <v>      -0.00045991       0.00045991       0.00015317 </v>
   <v>      -0.00096000       0.00096000       0.00860504 </v>
   <v>       0.00403631      -0.00403631       0.06299122 </v>
   <v>       0.00130099      -0.00130099       0.00038128 </v>
   <v>       0.00024655      -0.00024655       0.00036496 </v>
   <v>       0.02523154      -0.02523154       0.06229506 </v>
  </varray>
  <varray name="stress" >
   <v>      12.55451599       0.89977727      -0.22024940 </v>
   <v>       0.89977727      12.55451599       0.22024940 </v>
   <v>      -0.22024949       0.22024949      12.48458912 </v>
  </varray>
  <energy>
   <i name="e_fr_energy">    -43.38979358 </i>
   <i name="e_wo_entrp">    -43.38979358 </i>
   <i name="e_0_energy">    -43.38979358 </i>
  </energy>
  <time name="totalsc">   12.59   12.68</time>
  <eigenvalues>
   <array>
    <dimension dim="1">band</dimension>
    <dimension dim="2">kpoint</dimension>
    <dimension dim="3">spin</dimension>
    <field>eigene</field>
    <field>occ</field>
    <set>
     <set comment="spin 1">
      <set comment="kpoint 1">
       <r>   -6.1549    1.0000 </r>
       <r>   -5.0876    1.0000 </r>
       <r>   -5.0714    1.0000 </r>
       <r>   -2.0441    1.0000 </r>
       <r>   -2.0291    1.0000 </r>
       <r>    2.2352    1.0000 </r>
       <r>    2.2408    1.0000 </r>
       <r>    2.9192    1.0000 </r>
       <r>    2.9273    1.0000 </r>
       <r>    3.8644    1.0000 </r>
       <r>    3.8745    1.0000 </r>
       <r>    3.8840    1.0000 </r>
       <r>    3.8942    1.0000 </r>
       <r>    5.7421    1.0000 </r>
       <r>    5.7520    1.0000 </r>
       <r>    5.7661    1.0000 </r>
       <r>    6.4726    0.0000 </r>
       <r>    6.4840    0.0000 </r>
       <r>    6.8884    0.0000 </r>
       <r>    6.8963    0.0000 </r>
       <r>    8.3087    0.0000 </r>
       <r>    8.3167    0.0000 </r>
       <r>    8.3229    0.0000 </r>
       <r>    8.8886    0.0000 </r>
      </set>
      <set comment="kpoint 2">
       <r>   -6.0870    1.0000 </r>
       <r>   -5.5468    1.0000 </r>
       <r>   -4.4867    1.0000 </r>
       <r>   -2.9543    1.0000 </r>
       <r>   -1.0379    1.0000 </r>
       <r>    1.1214    1.0000 </r>
       <r>    2.9804    1.0000 </r>
       <r>    2.9886    1.0000 </r>
       <r>    3.3482    1.0000 </r>
       <r>    3.4635    1.0000 </r>
       <r>    3.4727    1.0000 </r>
       <r>    4.3801    1.0000 </r>
       <r>    4.3919    1.0000 </r>
       <r>    5.3297    1.0000 </r>
       <r>    5.4840    1.0000 </r>
       <r>    5.5032    1.0000 </r>
       <r>    6.3450    0.0000 </r>
       <r>    6.5713    0.0000 </r>
       <r>    6.7955    0.0000 </r>
       <r>    7.3108    0.0000 </r>
       <r>    8.0127    0.0000 </r>
       <r>    8.1563    0.0000 </r>
       <r>    8.6548    0.0000 </r>
       <r>    8.6646    0.0000 </r>
      </set>
      <set comment="kpoint 3">
       <r>   -5.8888    1.0000 </r>
       <r>   -5.8785    1.0000 </r>
       <r>   -3.7838    1.0000 </r>
       <r>   -3.7667    1.0000 </r>
       <r>    0.0166    1.0000 </r>
       <r>    0.0274    1.0000 </r>
       <r>    3.1561    1.0000 </r>
       <r>    3.1648    1.0000 </r>
       <r>    3.1700    1.0000 </r>
       <r>    3.1784    1.0000 </r>
       <r>    4.4145    1.0000 </r>
       <r>    4.4149    1.0000 </r>
       <r>    4.9362    1.0000 </r>
       <r>    4.9507    1.0000 </r>
       <r>    4.9581    1.0000 </r>
       <r>    4.9729    1.0000 </r>
       <r>    6.3763    0.0000 </r>
       <r>    6.3870    0.0000 </r>
       <r>    7.3014    0.0000 </r>
       <r>    7.3111    0.0000 </r>
       <r>    7.7661    0.0000 </r>
       <r>    7.7704    0.0000 </r>
       <r>    9.4454    0.0000 </r>
       <r>    9.4507    0.0000 </r>
      </set>
      <set comment="kpoint 4">
       <r>   -6.0831    1.0000 </r>
       <r>   -5.0225    1.0000 </r>
       <r>   -5.0064    1.0000 </r>
       <r>   -2.0778    1.0000 </r>
       <r>   -1.9512    1.0000 </r>
       <r>    1.9463    1.0000 </r>
       <r>    1.9535    1.0000 </r>
       <r>    2.5203    1.0000 </r>
       <r>    2.9766    1.0000 </r>
       <r>    3.7791    1.0000 </r>
       <r>    3.7942    1.0000 </r>
       <r>    3.9080    1.0000 </r>
       <r>    3.9277    1.0000 </r>
       <r>    5.1316    1.0000 </r>
       <r>    5.4613    1.0000 </r>
       <r>    5.7097    1.0000 </r>
       <r>    6.5390    0.0000 </r>
       <r>    7.1325    0.0000 </r>
       <r>    7.2531    0.0000 </r>
       <r>    7.2616    0.0000 </r>
       <r>    8.3968    0.0000 </r>
       <r>    8.4462    0.0000 </r>
       <r>    8.5229    0.0000 </r>
       <r>    9.1499    0.0000 </r>
      </set>
      <set comment="kpoint 5">
       <r>   -6.0831    1.0000 </r>
       <r>   -5.0224    1.0000 </r>
       <r>   -5.0062    1.0000 </r>
       <r>   -2.0631    1.0000 </r>
       <r>   -1.9662    1.0000 </r>
       <r>    1.9455    1.0000 </r>
       <r>    1.9515    1.0000 </r>
       <r>    2.5120    1.0000 </r>
       <r>    2.9848    1.0000 </r>
       <r>    3.7701    1.0000 </r>
       <r>    3.7844    1.0000 </r>
       <r>    3.9184    1.0000 </r>
       <r>    3.9381    1.0000 </r>
       <r>    5.1119    1.0000 </r>
       <r>    5.4623    1.0000 </r>
       <r>    5.7322    1.0000 </r>
       <r>    6.5504    0.0000 </r>
       <r>    7.1216    0.0000 </r>
       <r>    7.2563    0.0000 </r>
       <r>    7.2651    0.0000 </r>
       <r>    8.3833    0.0000 </r>
       <r>    8.4583    0.0000 </r>
       <r>    8.5236    0.0000 </r>
       <r>    9.1430    0.0000 </r>
      </set>
      <set comment="kpoint 6">
       <r>   -6.0156    1.0000 </r>
       <r>   -5.4783    1.0000 </r>
       <r>   -4.4269    1.0000 </r>
       <r>   -2.9148    1.0000 </r>
       <r>   -1.0463    1.0000 </r>
       <r>    0.9725    1.0000 </r>
       <r>    2.5987    1.0000 </r>
       <r>    2.8726    1.0000 </r>
       <r>    3.0371    1.0000 </r>
       <r>    3.2285    1.0000 </r>
       <r>    3.5141    1.0000 </r>
       <r>    4.4124    1.0000 </r>
       <r>    4.4745    1.0000 </r>
       <r>    4.5737    1.0000 </r>
       <r>    5.4715    1.0000 </r>
       <r>    5.5829    1.0000 </r>
       <r>    6.5682    0.0000 </r>
       <r>    6.9175    0.0000 </r>
       <r>    7.2816    0.0000 </r>
       <r>    7.6755    0.0000 </r>
       <r>    8.3183    0.0000 </r>
       <r>    8.3357    0.0000 </r>
       <r>    8.5430    0.0000 </r>
       <r>    8.7052    0.0000 </r>
      </set>
      <set comment="kpoint 7">
       <r>   -6.0154    1.0000 </r>
       <r>   -5.4783    1.0000 </r>
       <r>   -4.4265    1.0000 </r>
       <r>   -2.9144    1.0000 </r>
       <r>   -1.0466    1.0000 </r>
       <r>    0.9702    1.0000 </r>
       <r>    2.5897    1.0000 </r>
       <r>    2.8722    1.0000 </r>
       <r>    3.0454    1.0000 </r>
       <r>    3.2212    1.0000 </r>
       <r>    3.5233    1.0000 </r>
       <r>    4.4246    1.0000 </r>
       <r>    4.4621    1.0000 </r>
       <r>    4.5614    1.0000 </r>
       <r>    5.4905    1.0000 </r>
       <r>    5.5774    1.0000 </r>
       <r>    6.5779    0.0000 </r>
       <r>    6.9220    0.0000 </r>
       <r>    7.2725    0.0000 </r>
       <r>    7.6782    0.0000 </r>
       <r>    8.3217    0.0000 </r>
       <r>    8.3334    0.0000 </r>
       <r>    8.5487    0.0000 </r>
       <r>    8.6956    0.0000 </r>
      </set>
      <set comment="kpoint 8">
       <r>   -6.0155    1.0000 </r>
       <r>   -5.4785    1.0000 </r>
       <r>   -4.4265    1.0000 </r>
       <r>   -2.9155    1.0000 </r>
       <r>   -1.0448    1.0000 </r>
       <r>    0.9695    1.0000 </r>
       <r>    2.5976    1.0000 </r>
       <r>    2.8775    1.0000 </r>
       <r>    3.0371    1.0000 </r>
       <r>    3.2321    1.0000 </r>
       <r>    3.5139    1.0000 </r>
       <r>    4.4128    1.0000 </r>
       <r>    4.4688    1.0000 </r>
       <r>    4.5675    1.0000 </r>
       <r>    5.4711    1.0000 </r>
       <r>    5.5901    1.0000 </r>
       <r>    6.5686    0.0000 </r>
       <r>    6.9169    0.0000 </r>
       <r>    7.2815    0.0000 </r>
       <r>    7.6759    0.0000 </r>
       <r>    8.3201    0.0000 </r>
       <r>    8.3371    0.0000 </r>
       <r>    8.5389    0.0000 </r>
       <r>    8.7063    0.0000 </r>
      </set>
      <set comment="kpoint 9">
       <r>   -5.8184    1.0000 </r>
       <r>   -5.8081    1.0000 </r>
       <r>   -3.7317    1.0000 </r>
       <r>   -3.7146    1.0000 </r>
       <r>   -0.0452    1.0000 </r>
       <r>   -0.0345    1.0000 </r>
       <r>    2.8272    1.0000 </r>
       <r>    2.8399    1.0000 </r>
       <r>    3.2107    1.0000 </r>
       <r>    3.2246    1.0000 </r>
       <r>    3.7441    1.0000 </r>
       <r>    3.7556    1.0000 </r>
       <r>    4.9508    1.0000 </r>
       <r>    4.9725    1.0000 </r>
       <r>    5.1669    1.0000 </r>
       <r>    5.1794    1.0000 </r>
       <r>    6.6797    0.0000 </r>
       <r>    6.6919    0.0000 </r>
       <r>    7.6901    0.0000 </r>
       <r>    7.7009    0.0000 </r>
       <r>    8.1041    0.0000 </r>
       <r>    8.1087    0.0000 </r>
       <r>    8.8982    0.0000 </r>
       <r>    8.9070    0.0000 </r>
      </set>
      <set comment="kpoint 10">
       <r>   -5.8183    1.0000 </r>
       <r>   -5.8080    1.0000 </r>
       <r>   -3.7313    1.0000 </r>
       <r>   -3.7142    1.0000 </r>
       <r>   -0.0458    1.0000 </r>
       <r>   -0.0353    1.0000 </r>
       <r>    2.8184    1.0000 </r>
       <r>    2.8313    1.0000 </r>
       <r>    3.2195    1.0000 </r>
       <r>    3.2331    1.0000 </r>
       <r>    3.7397    1.0000 </r>
       <r>    3.7498    1.0000 </r>
       <r>    4.9655    1.0000 </r>
       <r>    4.9875    1.0000 </r>
       <r>    5.1580    1.0000 </r>
       <r>    5.1682    1.0000 </r>
       <r>    6.6865    0.0000 </r>
       <r>    6.6985    0.0000 </r>
       <r>    7.6834    0.0000 </r>
       <r>    7.6950    0.0000 </r>
       <r>    8.1053    0.0000 </r>
       <r>    8.1103    0.0000 </r>
       <r>    8.9052    0.0000 </r>
       <r>    8.9139    0.0000 </r>
      </set>
      <set comment="kpoint 11">
       <r>   -5.8692    1.0000 </r>
       <r>   -4.8320    1.0000 </r>
       <r>   -4.8160    1.0000 </r>
       <r>   -2.2212    1.0000 </r>
       <r>   -1.7180    1.0000 </r>
       <r>    1.1802    1.0000 </r>
       <r>    1.1911    1.0000 </r>
       <r>    1.8414    1.0000 </r>
       <r>    3.1463    1.0000 </r>
       <r>    3.7901    1.0000 </r>
       <r>    3.7986    1.0000 </r>
       <r>    3.9749    1.0000 </r>
       <r>    4.0319    1.0000 </r>
       <r>    4.0515    1.0000 </r>
       <r>    4.7658    1.0000 </r>
       <r>    5.6003    1.0000 </r>
       <r>    6.7353    0.0000 </r>
       <r>    7.7819    0.0000 </r>
       <r>    7.7948    0.0000 </r>
       <r>    8.5746    0.0000 </r>
       <r>    8.6182    0.0000 </r>
       <r>    8.6881    0.0000 </r>
       <r>    8.7740    0.0000 </r>
       <r>    9.8724    0.0000 </r>
      </set>
      <set comment="kpoint 12">
       <r>   -5.8689    1.0000 </r>
       <r>   -4.8314    1.0000 </r>
       <r>   -4.8154    1.0000 </r>
       <r>   -2.2076    1.0000 </r>
       <r>   -1.7329    1.0000 </r>
       <r>    1.1765    1.0000 </r>
       <r>    1.1864    1.0000 </r>
       <r>    1.8336    1.0000 </r>
       <r>    3.1549    1.0000 </r>
       <r>    3.7827    1.0000 </r>
       <r>    3.7900    1.0000 </r>
       <r>    3.9575    1.0000 </r>
       <r>    4.0429    1.0000 </r>
       <r>    4.0626    1.0000 </r>
       <r>    4.7681    1.0000 </r>
       <r>    5.6218    1.0000 </r>
       <r>    6.7469    0.0000 </r>
       <r>    7.7907    0.0000 </r>
       <r>    7.8034    0.0000 </r>
       <r>    8.5638    0.0000 </r>
       <r>    8.6048    0.0000 </r>
       <r>    8.6910    0.0000 </r>
       <r>    8.7838    0.0000 </r>
       <r>    9.8736    0.0000 </r>
      </set>
      <set comment="kpoint 13">
       <r>   -5.8029    1.0000 </r>
       <r>   -5.2763    1.0000 </r>
       <r>   -4.2554    1.0000 </r>
       <r>   -2.8331    1.0000 </r>
       <r>   -1.0871    1.0000 </r>
       <r>    0.4702    1.0000 </r>
       <r>    1.9088    1.0000 </r>
       <r>    1.9732    1.0000 </r>
       <r>    2.9957    1.0000 </r>
       <r>    3.2044    1.0000 </r>
       <r>    3.4532    1.0000 </r>
       <r>    3.6608    1.0000 </r>
       <r>    4.4990    1.0000 </r>
       <r>    4.6171    1.0000 </r>
       <r>    5.1305    1.0000 </r>
       <r>    5.4163    1.0000 </r>
       <r>    6.8111    0.0000 </r>
       <r>    7.3744    0.0000 </r>
       <r>    8.1408    0.0000 </r>
       <r>    8.1648    0.0000 </r>
       <r>    8.6677    0.0000 </r>
       <r>    8.8290    0.0000 </r>
       <r>    9.0494    0.0000 </r>
       <r>    9.0795    0.0000 </r>
      </set>
      <set comment="kpoint 14">
       <r>   -5.8025    1.0000 </r>
       <r>   -5.2760    1.0000 </r>
       <r>   -4.2541    1.0000 </r>
       <r>   -2.8305    1.0000 </r>
       <r>   -1.0904    1.0000 </r>
       <r>    0.4643    1.0000 </r>
       <r>    1.9058    1.0000 </r>
       <r>    1.9645    1.0000 </r>
       <r>    2.9903    1.0000 </r>
       <r>    3.2133    1.0000 </r>
       <r>    3.4409    1.0000 </r>
       <r>    3.6705    1.0000 </r>
       <r>    4.5121    1.0000 </r>
       <r>    4.6055    1.0000 </r>
       <r>    5.1273    1.0000 </r>
       <r>    5.4352    1.0000 </r>
       <r>    6.8227    0.0000 </r>
       <r>    7.3847    0.0000 </r>
       <r>    8.1444    0.0000 </r>
       <r>    8.1708    0.0000 </r>
       <r>    8.6570    0.0000 </r>
       <r>    8.8189    0.0000 </r>
       <r>    9.0583    0.0000 </r>
       <r>    9.0904    0.0000 </r>
      </set>
      <set comment="kpoint 15">
       <r>   -5.8028    1.0000 </r>
       <r>   -5.2767    1.0000 </r>
       <r>   -4.2546    1.0000 </r>
       <r>   -2.8346    1.0000 </r>
       <r>   -1.0839    1.0000 </r>
       <r>    0.4654    1.0000 </r>
       <r>    1.9135    1.0000 </r>
       <r>    1.9713    1.0000 </r>
       <r>    3.0007    1.0000 </r>
       <r>    3.2046    1.0000 </r>
       <r>    3.4493    1.0000 </r>
       <r>    3.6604    1.0000 </r>
       <r>    4.4997    1.0000 </r>
       <r>    4.6111    1.0000 </r>
       <r>    5.1354    1.0000 </r>
       <r>    5.4156    1.0000 </r>
       <r>    6.8113    0.0000 </r>
       <r>    7.3741    0.0000 </r>
       <r>    8.1391    0.0000 </r>
       <r>    8.1671    0.0000 </r>
       <r>    8.6678    0.0000 </r>
       <r>    8.8312    0.0000 </r>
       <r>    9.0473    0.0000 </r>
       <r>    9.0818    0.0000 </r>
      </set>
      <set comment="kpoint 16">
       <r>   -5.6094    1.0000 </r>
       <r>   -5.5992    1.0000 </r>
       <r>   -3.5912    1.0000 </r>
       <r>   -3.5743    1.0000 </r>
       <r>   -0.2905    1.0000 </r>
       <r>   -0.2806    1.0000 </r>
       <r>    2.3594    1.0000 </r>
       <r>    2.3690    1.0000 </r>
       <r>    2.6661    1.0000 </r>
       <r>    2.6803    1.0000 </r>
       <r>    3.3708    1.0000 </r>
       <r>    3.3849    1.0000 </r>
       <r>    4.9787    1.0000 </r>
       <r>    5.0001    1.0000 </r>
       <r>    5.1918    1.0000 </r>
       <r>    5.2001    1.0000 </r>
       <r>    7.0248    0.0000 </r>
       <r>    7.0394    0.0000 </r>
       <r>    8.0338    0.0000 </r>
       <r>    8.0376    0.0000 </r>
       <r>    8.9317    0.0000 </r>
       <r>    8.9374    0.0000 </r>
       <r>    8.9445    0.0000 </r>
       <r>    8.9615    0.0000 </r>
      </set>
      <set comment="kpoint 17">
       <r>   -5.6090    1.0000 </r>
       <r>   -5.5988    1.0000 </r>
       <r>   -3.5897    1.0000 </r>
       <r>   -3.5728    1.0000 </r>
       <r>   -0.2934    1.0000 </r>
       <r>   -0.2844    1.0000 </r>
       <r>    2.3515    1.0000 </r>
       <r>    2.3611    1.0000 </r>
       <r>    2.6598    1.0000 </r>
       <r>    2.6725    1.0000 </r>
       <r>    3.3801    1.0000 </r>
       <r>    3.3939    1.0000 </r>
       <r>    4.9941    1.0000 </r>
       <r>    5.0157    1.0000 </r>
       <r>    5.1840    1.0000 </r>
       <r>    5.1898    1.0000 </r>
       <r>    7.0362    0.0000 </r>
       <r>    7.0505    0.0000 </r>
       <r>    8.0375    0.0000 </r>
       <r>    8.0404    0.0000 </r>
       <r>    8.9292    0.0000 </r>
       <r>    8.9459    0.0000 </r>
       <r>    8.9490    0.0000 </r>
       <r>    8.9547    0.0000 </r>
      </set>
      <set comment="kpoint 18">
       <r>   -5.5180    1.0000 </r>
       <r>   -4.5345    1.0000 </r>
       <r>   -4.5189    1.0000 </r>
       <r>   -2.5647    1.0000 </r>
       <r>   -1.3305    1.0000 </r>
       <r>    0.2583    1.0000 </r>
       <r>    0.2708    1.0000 </r>
       <r>    1.4263    1.0000 </r>
       <r>    2.7939    1.0000 </r>
       <r>    3.4200    1.0000 </r>
       <r>    3.9241    1.0000 </r>
       <r>    3.9941    1.0000 </r>
       <r>    4.0002    1.0000 </r>
       <r>    4.2119    1.0000 </r>
       <r>    4.2315    1.0000 </r>
       <r>    5.3883    1.0000 </r>
       <r>    7.0526    0.0000 </r>
       <r>    7.9989    0.0000 </r>
       <r>    8.0109    0.0000 </r>
       <r>    8.7861    0.0000 </r>
       <r>    8.9864    0.0000 </r>
       <r>    9.2150    0.0000 </r>
       <r>    9.2212    0.0000 </r>
       <r>    9.2297    0.0000 </r>
      </set>
      <set comment="kpoint 19">
       <r>   -5.5172    1.0000 </r>
       <r>   -4.5330    1.0000 </r>
       <r>   -4.5174    1.0000 </r>
       <r>   -2.5538    1.0000 </r>
       <r>   -1.3455    1.0000 </r>
       <r>    0.2521    1.0000 </r>
       <r>    0.2638    1.0000 </r>
       <r>    1.4208    1.0000 </r>
       <r>    2.7777    1.0000 </r>
       <r>    3.4294    1.0000 </r>
       <r>    3.9268    1.0000 </r>
       <r>    3.9879    1.0000 </r>
       <r>    3.9912    1.0000 </r>
       <r>    4.2241    1.0000 </r>
       <r>    4.2436    1.0000 </r>
       <r>    5.4080    1.0000 </r>
       <r>    7.0645    0.0000 </r>
       <r>    8.0061    0.0000 </r>
       <r>    8.0180    0.0000 </r>
       <r>    8.7920    0.0000 </r>
       <r>    8.9731    0.0000 </r>
       <r>    9.2235    0.0000 </r>
       <r>    9.2333    0.0000 </r>
       <r>    9.2373    0.0000 </r>
      </set>
      <set comment="kpoint 20">
       <r>   -5.4543    1.0000 </r>
       <r>   -4.9514    1.0000 </r>
       <r>   -4.0064    1.0000 </r>
       <r>   -2.8569    1.0000 </r>
       <r>   -1.1156    1.0000 </r>
       <r>   -0.2590    1.0000 </r>
       <r>    0.8774    1.0000 </r>
       <r>    1.6546    1.0000 </r>
       <r>    2.3206    1.0000 </r>
       <r>    3.0967    1.0000 </r>
       <r>    3.4735    1.0000 </r>
       <r>    3.8876    1.0000 </r>
       <r>    4.3783    1.0000 </r>
       <r>    4.6041    1.0000 </r>
       <r>    4.7415    1.0000 </r>
       <r>    5.2762    1.0000 </r>
       <r>    7.1321    0.0000 </r>
       <r>    7.7056    0.0000 </r>
       <r>    7.8041    0.0000 </r>
       <r>    8.2626    0.0000 </r>
       <r>    9.0446    0.0000 </r>
       <r>    9.0697    0.0000 </r>
       <r>    9.3940    0.0000 </r>
       <r>    9.5725    0.0000 </r>
      </set>
      <set comment="kpoint 21">
       <r>   -5.4533    1.0000 </r>
       <r>   -4.9506    1.0000 </r>
       <r>   -4.0034    1.0000 </r>
       <r>   -2.8510    1.0000 </r>
       <r>   -1.1244    1.0000 </r>
       <r>   -0.2684    1.0000 </r>
       <r>    0.8725    1.0000 </r>
       <r>    1.6476    1.0000 </r>
       <r>    2.3078    1.0000 </r>
       <r>    3.0924    1.0000 </r>
       <r>    3.4832    1.0000 </r>
       <r>    3.8981    1.0000 </r>
       <r>    4.3769    1.0000 </r>
       <r>    4.6186    1.0000 </r>
       <r>    4.7301    1.0000 </r>
       <r>    5.2944    1.0000 </r>
       <r>    7.1441    0.0000 </r>
       <r>    7.7169    0.0000 </r>
       <r>    7.8057    0.0000 </r>
       <r>    8.2675    0.0000 </r>
       <r>    9.0339    0.0000 </r>
       <r>    9.0879    0.0000 </r>
       <r>    9.4063    0.0000 </r>
       <r>    9.5623    0.0000 </r>
      </set>
      <set comment="kpoint 22">
       <r>   -5.4541    1.0000 </r>
       <r>   -4.9521    1.0000 </r>
       <r>   -4.0050    1.0000 </r>
       <r>   -2.8591    1.0000 </r>
       <r>   -1.1111    1.0000 </r>
       <r>   -0.2642    1.0000 </r>
       <r>    0.8817    1.0000 </r>
       <r>    1.6520    1.0000 </r>
       <r>    2.3172    1.0000 </r>
       <r>    3.1014    1.0000 </r>
       <r>    3.4737    1.0000 </r>
       <r>    3.8869    1.0000 </r>
       <r>    4.3819    1.0000 </r>
       <r>    4.6053    1.0000 </r>
       <r>    4.7364    1.0000 </r>
       <r>    5.2754    1.0000 </r>
       <r>    7.1323    0.0000 </r>
       <r>    7.7054    0.0000 </r>
       <r>    7.8020    0.0000 </r>
       <r>    8.2646    0.0000 </r>
       <r>    9.0478    0.0000 </r>
       <r>    9.0716    0.0000 </r>
       <r>    9.3930    0.0000 </r>
       <r>    9.5672    0.0000 </r>
      </set>
      <set comment="kpoint 23">
       <r>   -5.2689    1.0000 </r>
       <r>   -5.2588    1.0000 </r>
       <r>   -3.4303    1.0000 </r>
       <r>   -3.4145    1.0000 </r>
       <r>   -0.7197    1.0000 </r>
       <r>   -0.7103    1.0000 </r>
       <r>    1.5719    1.0000 </r>
       <r>    1.5861    1.0000 </r>
       <r>    2.2600    1.0000 </r>
       <r>    2.2663    1.0000 </r>
       <r>    3.6250    1.0000 </r>
       <r>    3.6396    1.0000 </r>
       <r>    4.8938    1.0000 </r>
       <r>    4.9001    1.0000 </r>
       <r>    4.9731    1.0000 </r>
       <r>    4.9936    1.0000 </r>
       <r>    7.3551    0.0000 </r>
       <r>    7.3702    0.0000 </r>
       <r>    7.7154    0.0000 </r>
       <r>    7.7186    0.0000 </r>
       <r>    9.2304    0.0000 </r>
       <r>    9.2419    0.0000 </r>
       <r>    9.3090    0.0000 </r>
       <r>    9.3172    0.0000 </r>
      </set>
      <set comment="kpoint 24">
       <r>   -5.2680    1.0000 </r>
       <r>   -5.2579    1.0000 </r>
       <r>   -3.4264    1.0000 </r>
       <r>   -3.4107    1.0000 </r>
       <r>   -0.7268    1.0000 </r>
       <r>   -0.7192    1.0000 </r>
       <r>    1.5639    1.0000 </r>
       <r>    1.5778    1.0000 </r>
       <r>    2.2547    1.0000 </r>
       <r>    2.2594    1.0000 </r>
       <r>    3.6353    1.0000 </r>
       <r>    3.6494    1.0000 </r>
       <r>    4.8869    1.0000 </r>
       <r>    4.8908    1.0000 </r>
       <r>    4.9892    1.0000 </r>
       <r>    5.0103    1.0000 </r>
       <r>    7.3674    0.0000 </r>
       <r>    7.3820    0.0000 </r>
       <r>    7.7196    0.0000 </r>
       <r>    7.7222    0.0000 </r>
       <r>    9.2210    0.0000 </r>
       <r>    9.2316    0.0000 </r>
       <r>    9.3252    0.0000 </r>
       <r>    9.3335    0.0000 </r>
      </set>
      <set comment="kpoint 25">
       <r>   -5.0392    1.0000 </r>
       <r>   -4.1796    1.0000 </r>
       <r>   -4.1649    1.0000 </r>
       <r>   -3.1229    1.0000 </r>
       <r>   -0.7909    1.0000 </r>
       <r>   -0.5701    1.0000 </r>
       <r>   -0.5578    1.0000 </r>
       <r>    1.4228    1.0000 </r>
       <r>    1.7019    1.0000 </r>
       <r>    3.0887    1.0000 </r>
       <r>    3.7819    1.0000 </r>
       <r>    4.2879    1.0000 </r>
       <r>    4.2929    1.0000 </r>
       <r>    4.4010    1.0000 </r>
       <r>    4.4204    1.0000 </r>
       <r>    5.0631    1.0000 </r>
       <r>    7.4716    0.0000 </r>
       <r>    7.7165    0.0000 </r>
       <r>    7.7198    0.0000 </r>
       <r>    8.7237    0.0000 </r>
       <r>    8.9958    0.0000 </r>
       <r>    9.0041    0.0000 </r>
       <r>    9.4744    0.0000 </r>
       <r>    9.4889    0.0000 </r>
      </set>
      <set comment="kpoint 26">
       <r>   -5.0377    1.0000 </r>
       <r>   -4.1764    1.0000 </r>
       <r>   -4.1618    1.0000 </r>
       <r>   -3.1156    1.0000 </r>
       <r>   -0.8059    1.0000 </r>
       <r>   -0.5785    1.0000 </r>
       <r>   -0.5672    1.0000 </r>
       <r>    1.4205    1.0000 </r>
       <r>    1.6862    1.0000 </r>
       <r>    3.0913    1.0000 </r>
       <r>    3.7926    1.0000 </r>
       <r>    4.2812    1.0000 </r>
       <r>    4.2832    1.0000 </r>
       <r>    4.4146    1.0000 </r>
       <r>    4.4339    1.0000 </r>
       <r>    5.0803    1.0000 </r>
       <r>    7.4838    0.0000 </r>
       <r>    7.7194    0.0000 </r>
       <r>    7.7223    0.0000 </r>
       <r>    8.7335    0.0000 </r>
       <r>    9.0122    0.0000 </r>
       <r>    9.0210    0.0000 </r>
       <r>    9.4669    0.0000 </r>
       <r>    9.4776    0.0000 </r>
      </set>
      <set comment="kpoint 27">
       <r>   -4.9809    1.0000 </r>
       <r>   -4.5306    1.0000 </r>
       <r>   -3.7765    1.0000 </r>
       <r>   -3.1926    1.0000 </r>
       <r>   -0.9085    1.0000 </r>
       <r>   -0.8943    1.0000 </r>
       <r>   -0.0578    1.0000 </r>
       <r>    1.2750    1.0000 </r>
       <r>    1.7570    1.0000 </r>
       <r>    3.4349    1.0000 </r>
       <r>    3.5593    1.0000 </r>
       <r>    3.8269    1.0000 </r>
       <r>    4.1621    1.0000 </r>
       <r>    4.6652    1.0000 </r>
       <r>    4.7055    1.0000 </r>
       <r>    5.0177    1.0000 </r>
       <r>    7.4149    0.0000 </r>
       <r>    7.5411    0.0000 </r>
       <r>    7.9256    0.0000 </r>
       <r>    8.4383    0.0000 </r>
       <r>    9.1916    0.0000 </r>
       <r>    9.2397    0.0000 </r>
       <r>    9.3227    0.0000 </r>
       <r>    9.3792    0.0000 </r>
      </set>
      <set comment="kpoint 28">
       <r>   -4.9791    1.0000 </r>
       <r>   -4.5288    1.0000 </r>
       <r>   -3.7710    1.0000 </r>
       <r>   -3.1863    1.0000 </r>
       <r>   -0.9196    1.0000 </r>
       <r>   -0.9078    1.0000 </r>
       <r>   -0.0642    1.0000 </r>
       <r>    1.2618    1.0000 </r>
       <r>    1.7522    1.0000 </r>
       <r>    3.4306    1.0000 </r>
       <r>    3.5589    1.0000 </r>
       <r>    3.8379    1.0000 </r>
       <r>    4.1739    1.0000 </r>
       <r>    4.6803    1.0000 </r>
       <r>    4.6945    1.0000 </r>
       <r>    5.0343    1.0000 </r>
       <r>    7.4174    0.0000 </r>
       <r>    7.5534    0.0000 </r>
       <r>    7.9349    0.0000 </r>
       <r>    8.4447    0.0000 </r>
       <r>    9.2100    0.0000 </r>
       <r>    9.2280    0.0000 </r>
       <r>    9.3298    0.0000 </r>
       <r>    9.3686    0.0000 </r>
      </set>
      <set comment="kpoint 29">
       <r>   -4.9805    1.0000 </r>
       <r>   -4.5317    1.0000 </r>
       <r>   -3.7742    1.0000 </r>
       <r>   -3.1943    1.0000 </r>
       <r>   -0.9049    1.0000 </r>
       <r>   -0.8992    1.0000 </r>
       <r>   -0.0534    1.0000 </r>
       <r>    1.2720    1.0000 </r>
       <r>    1.7541    1.0000 </r>
       <r>    3.4390    1.0000 </r>
       <r>    3.5625    1.0000 </r>
       <r>    3.8272    1.0000 </r>
       <r>    4.1611    1.0000 </r>
       <r>    4.6667    1.0000 </r>
       <r>    4.7009    1.0000 </r>
       <r>    5.0169    1.0000 </r>
       <r>    7.4131    0.0000 </r>
       <r>    7.5413    0.0000 </r>
       <r>    7.9261    0.0000 </r>
       <r>    8.4395    0.0000 </r>
       <r>    9.1929    0.0000 </r>
       <r>    9.2342    0.0000 </r>
       <r>    9.3232    0.0000 </r>
       <r>    9.3827    0.0000 </r>
      </set>
      <set comment="kpoint 30">
       <r>   -4.8129    1.0000 </r>
       <r>   -4.8030    1.0000 </r>
       <r>   -3.4257    1.0000 </r>
       <r>   -3.4128    1.0000 </r>
       <r>   -1.0166    1.0000 </r>
       <r>   -1.0068    1.0000 </r>
       <r>    0.5737    1.0000 </r>
       <r>    0.5878    1.0000 </r>
       <r>    2.5192    1.0000 </r>
       <r>    2.5235    1.0000 </r>
       <r>    3.9507    1.0000 </r>
       <r>    3.9660    1.0000 </r>
       <r>    4.3116    1.0000 </r>
       <r>    4.3166    1.0000 </r>
       <r>    4.8708    1.0000 </r>
       <r>    4.8898    1.0000 </r>
       <r>    7.7215    0.0000 </r>
       <r>    7.7374    0.0000 </r>
       <r>    7.7898    0.0000 </r>
       <r>    7.7919    0.0000 </r>
       <r>    9.2170    0.0000 </r>
       <r>    9.2283    0.0000 </r>
       <r>    9.3811    0.0000 </r>
       <r>    9.3904    0.0000 </r>
      </set>
      <set comment="kpoint 31">
       <r>   -4.8110    1.0000 </r>
       <r>   -4.8012    1.0000 </r>
       <r>   -3.4196    1.0000 </r>
       <r>   -3.4069    1.0000 </r>
       <r>   -1.0275    1.0000 </r>
       <r>   -1.0197    1.0000 </r>
       <r>    0.5646    1.0000 </r>
       <r>    0.5783    1.0000 </r>
       <r>    2.5155    1.0000 </r>
       <r>    2.5174    1.0000 </r>
       <r>    3.9624    1.0000 </r>
       <r>    3.9770    1.0000 </r>
       <r>    4.3064    1.0000 </r>
       <r>    4.3094    1.0000 </r>
       <r>    4.8867    1.0000 </r>
       <r>    4.9063    1.0000 </r>
       <r>    7.7346    0.0000 </r>
       <r>    7.7477    0.0000 </r>
       <r>    7.7935    0.0000 </r>
       <r>    7.7951    0.0000 </r>
       <r>    9.2066    0.0000 </r>
       <r>    9.2167    0.0000 </r>
       <r>    9.3977    0.0000 </r>
       <r>    9.4072    0.0000 </r>
      </set>
      <set comment="kpoint 32">
       <r>   -4.4514    1.0000 </r>
       <r>   -3.8962    1.0000 </r>
       <r>   -3.8827    1.0000 </r>
       <r>   -3.7894    1.0000 </r>
       <r>   -1.1018    1.0000 </r>
       <r>   -1.0912    1.0000 </r>
       <r>   -0.1017    1.0000 </r>
       <r>    0.7317    1.0000 </r>
       <r>    1.7649    1.0000 </r>
       <r>    2.3465    1.0000 </r>
       <r>    4.2054    1.0000 </r>
       <r>    4.5273    1.0000 </r>
       <r>    4.5276    1.0000 </r>
       <r>    4.5324    1.0000 </r>
       <r>    4.5472    1.0000 </r>
       <r>    4.6522    1.0000 </r>
       <r>    7.3270    0.0000 </r>
       <r>    7.3289    0.0000 </r>
       <r>    7.9531    0.0000 </r>
       <r>    8.4161    0.0000 </r>
       <r>    9.0663    0.0000 </r>
       <r>    9.0779    0.0000 </r>
       <r>    9.1404    0.0000 </r>
       <r>    9.1524    0.0000 </r>
      </set>
      <set comment="kpoint 33">
       <r>   -4.4487    1.0000 </r>
       <r>   -3.8908    1.0000 </r>
       <r>   -3.8780    1.0000 </r>
       <r>   -3.7848    1.0000 </r>
       <r>   -1.1121    1.0000 </r>
       <r>   -1.1030    1.0000 </r>
       <r>   -0.1168    1.0000 </r>
       <r>    0.7163    1.0000 </r>
       <r>    1.7652    1.0000 </r>
       <r>    2.3483    1.0000 </r>
       <r>    4.2178    1.0000 </r>
       <r>    4.5196    1.0000 </r>
       <r>    4.5217    1.0000 </r>
       <r>    4.5426    1.0000 </r>
       <r>    4.5611    1.0000 </r>
       <r>    4.6671    1.0000 </r>
       <r>    7.3304    0.0000 </r>
       <r>    7.3315    0.0000 </r>
       <r>    7.9656    0.0000 </r>
       <r>    8.4282    0.0000 </r>
       <r>    9.0844    0.0000 </r>
       <r>    9.0958    0.0000 </r>
       <r>    9.1320    0.0000 </r>
       <r>    9.1422    0.0000 </r>
      </set>
      <set comment="kpoint 34">
       <r>   -4.4051    1.0000 </r>
       <r>   -4.0815    1.0000 </r>
       <r>   -3.7764    1.0000 </r>
       <r>   -3.7656    1.0000 </r>
       <r>   -1.1174    1.0000 </r>
       <r>   -0.7827    1.0000 </r>
       <r>   -0.3866    1.0000 </r>
       <r>    0.3618    1.0000 </r>
       <r>    2.1751    1.0000 </r>
       <r>    2.7988    1.0000 </r>
       <r>    3.9016    1.0000 </r>
       <r>    4.2345    1.0000 </r>
       <r>    4.3871    1.0000 </r>
       <r>    4.4287    1.0000 </r>
       <r>    4.6120    1.0000 </r>
       <r>    4.6547    1.0000 </r>
       <r>    7.4624    0.0000 </r>
       <r>    7.7930    0.0000 </r>
       <r>    7.9920    0.0000 </r>
       <r>    8.3644    0.0000 </r>
       <r>    9.0570    0.0000 </r>
       <r>    9.1547    0.0000 </r>
       <r>    9.1600    0.0000 </r>
       <r>    9.3993    0.0000 </r>
      </set>
      <set comment="kpoint 35">
       <r>   -4.4020    1.0000 </r>
       <r>   -4.0783    1.0000 </r>
       <r>   -3.7714    1.0000 </r>
       <r>   -3.7595    1.0000 </r>
       <r>   -1.1319    1.0000 </r>
       <r>   -0.7907    1.0000 </r>
       <r>   -0.3982    1.0000 </r>
       <r>    0.3477    1.0000 </r>
       <r>    2.1717    1.0000 </r>
       <r>    2.7986    1.0000 </r>
       <r>    3.8967    1.0000 </r>
       <r>    4.2474    1.0000 </r>
       <r>    4.3769    1.0000 </r>
       <r>    4.4418    1.0000 </r>
       <r>    4.6273    1.0000 </r>
       <r>    4.6695    1.0000 </r>
       <r>    7.4645    0.0000 </r>
       <r>    7.7975    0.0000 </r>
       <r>    8.0042    0.0000 </r>
       <r>    8.3750    0.0000 </r>
       <r>    9.0711    0.0000 </r>
       <r>    9.1468    0.0000 </r>
       <r>    9.1733    0.0000 </r>
       <r>    9.3928    0.0000 </r>
      </set>
      <set comment="kpoint 36">
       <r>   -4.4046    1.0000 </r>
       <r>   -4.0834    1.0000 </r>
       <r>   -3.7762    1.0000 </r>
       <r>   -3.7641    1.0000 </r>
       <r>   -1.1230    1.0000 </r>
       <r>   -0.7779    1.0000 </r>
       <r>   -0.3830    1.0000 </r>
       <r>    0.3586    1.0000 </r>
       <r>    2.1723    1.0000 </r>
       <r>    2.8016    1.0000 </r>
       <r>    3.9056    1.0000 </r>
       <r>    4.2350    1.0000 </r>
       <r>    4.3829    1.0000 </r>
       <r>    4.4273    1.0000 </r>
       <r>    4.6135    1.0000 </r>
       <r>    4.6541    1.0000 </r>
       <r>    7.4607    0.0000 </r>
       <r>    7.7945    0.0000 </r>
       <r>    7.9921    0.0000 </r>
       <r>    8.3646    0.0000 </r>
       <r>    9.0563    0.0000 </r>
       <r>    9.1545    0.0000 </r>
       <r>    9.1558    0.0000 </r>
       <r>    9.4045    0.0000 </r>
      </set>
      <set comment="kpoint 37">
       <r>   -4.2776    1.0000 </r>
       <r>   -4.2678    1.0000 </r>
       <r>   -3.7513    1.0000 </r>
       <r>   -3.7412    1.0000 </r>
       <r>   -0.8467    1.0000 </r>
       <r>   -0.8351    1.0000 </r>
       <r>   -0.2623    1.0000 </r>
       <r>   -0.2488    1.0000 </r>
       <r>    3.0072    1.0000 </r>
       <r>    3.0111    1.0000 </r>
       <r>    3.6340    1.0000 </r>
       <r>    3.6383    1.0000 </r>
       <r>    4.3080    1.0000 </r>
       <r>    4.3248    1.0000 </r>
       <r>    4.6392    1.0000 </r>
       <r>    4.6558    1.0000 </r>
       <r>    8.0269    0.0000 </r>
       <r>    8.0420    0.0000 </r>
       <r>    8.0464    0.0000 </r>
       <r>    8.0501    0.0000 </r>
       <r>    9.3105    0.0000 </r>
       <r>    9.3165    0.0000 </r>
       <r>    9.4206    0.0000 </r>
       <r>    9.4324    0.0000 </r>
      </set>
      <set comment="kpoint 38">
       <r>   -4.2742    1.0000 </r>
       <r>   -4.2646    1.0000 </r>
       <r>   -3.7460    1.0000 </r>
       <r>   -3.7359    1.0000 </r>
       <r>   -0.8583    1.0000 </r>
       <r>   -0.8477    1.0000 </r>
       <r>   -0.2725    1.0000 </r>
       <r>   -0.2599    1.0000 </r>
       <r>    3.0038    1.0000 </r>
       <r>    3.0054    1.0000 </r>
       <r>    3.6300    1.0000 </r>
       <r>    3.6323    1.0000 </r>
       <r>    4.3220    1.0000 </r>
       <r>    4.3370    1.0000 </r>
       <r>    4.6533    1.0000 </r>
       <r>    4.6715    1.0000 </r>
       <r>    8.0398    0.0000 </r>
       <r>    8.0447    0.0000 </r>
       <r>    8.0463    0.0000 </r>
       <r>    8.0641    0.0000 </r>
       <r>    9.3233    0.0000 </r>
       <r>    9.3294    0.0000 </r>
       <r>    9.4108    0.0000 </r>
       <r>    9.4214    0.0000 </r>
      </set>
      <set comment="kpoint 39">
       <r>   -6.0112    1.0000 </r>
       <r>   -4.9571    1.0000 </r>
       <r>   -4.9410    1.0000 </r>
       <r>   -2.0001    1.0000 </r>
       <r>   -1.9853    1.0000 </r>
       <r>    1.7746    1.0000 </r>
       <r>    1.7798    1.0000 </r>
       <r>    2.5706    1.0000 </r>
       <r>    2.5791    1.0000 </r>
       <r>    3.3741    1.0000 </r>
       <r>    3.3799    1.0000 </r>
       <r>    4.1725    1.0000 </r>
       <r>    4.1792    1.0000 </r>
       <r>    4.9460    1.0000 </r>
       <r>    5.2609    1.0000 </r>
       <r>    5.2653    1.0000 </r>
       <r>    7.1863    0.0000 </r>
       <r>    7.1974    0.0000 </r>
       <r>    7.6516    0.0000 </r>
       <r>    7.6598    0.0000 </r>
       <r>    7.9977    0.0000 </r>
       <r>    8.9820    0.0000 </r>
       <r>    8.9838    0.0000 </r>
       <r>    9.3522    0.0000 </r>
      </set>
      <set comment="kpoint 40">
       <r>   -5.9440    1.0000 </r>
       <r>   -5.4098    1.0000 </r>
       <r>   -4.3663    1.0000 </r>
       <r>   -2.8723    1.0000 </r>
       <r>   -1.0556    1.0000 </r>
       <r>    0.8620    1.0000 </r>
       <r>    2.5676    1.0000 </r>
       <r>    2.6537    1.0000 </r>
       <r>    2.7364    1.0000 </r>
       <r>    2.9792    1.0000 </r>
       <r>    3.5447    1.0000 </r>
       <r>    3.8814    1.0000 </r>
       <r>    4.3366    1.0000 </r>
       <r>    4.8756    1.0000 </r>
       <r>    5.0010    1.0000 </r>
       <r>    5.5889    1.0000 </r>
       <r>    7.0906    0.0000 </r>
       <r>    7.3426    0.0000 </r>
       <r>    7.4642    0.0000 </r>
       <r>    8.0520    0.0000 </r>
       <r>    8.3478    0.0000 </r>
       <r>    8.5608    0.0000 </r>
       <r>    8.7152    0.0000 </r>
       <r>    8.8475    0.0000 </r>
      </set>
      <set comment="kpoint 41">
       <r>   -5.9440    1.0000 </r>
       <r>   -5.4100    1.0000 </r>
       <r>   -4.3659    1.0000 </r>
       <r>   -2.8730    1.0000 </r>
       <r>   -1.0542    1.0000 </r>
       <r>    0.8594    1.0000 </r>
       <r>    2.5676    1.0000 </r>
       <r>    2.6576    1.0000 </r>
       <r>    2.7354    1.0000 </r>
       <r>    2.9796    1.0000 </r>
       <r>    3.5472    1.0000 </r>
       <r>    3.8809    1.0000 </r>
       <r>    4.3321    1.0000 </r>
       <r>    4.8716    1.0000 </r>
       <r>    5.0011    1.0000 </r>
       <r>    5.5943    1.0000 </r>
       <r>    7.0913    0.0000 </r>
       <r>    7.3418    0.0000 </r>
       <r>    7.4638    0.0000 </r>
       <r>    8.0529    0.0000 </r>
       <r>    8.3466    0.0000 </r>
       <r>    8.5607    0.0000 </r>
       <r>    8.7157    0.0000 </r>
       <r>    8.8479    0.0000 </r>
      </set>
      <set comment="kpoint 42">
       <r>   -5.7479    1.0000 </r>
       <r>   -5.7377    1.0000 </r>
       <r>   -3.6784    1.0000 </r>
       <r>   -3.6613    1.0000 </r>
       <r>   -0.0970    1.0000 </r>
       <r>   -0.0867    1.0000 </r>
       <r>    2.7016    1.0000 </r>
       <r>    2.7093    1.0000 </r>
       <r>    3.0550    1.0000 </r>
       <r>    3.0628    1.0000 </r>
       <r>    3.5079    1.0000 </r>
       <r>    3.5120    1.0000 </r>
       <r>    4.4527    1.0000 </r>
       <r>    4.4563    1.0000 </r>
       <r>    5.4575    1.0000 </r>
       <r>    5.4644    1.0000 </r>
       <r>    7.1414    0.0000 </r>
       <r>    7.1522    0.0000 </r>
       <r>    7.9138    0.0000 </r>
       <r>    7.9231    0.0000 </r>
       <r>    8.4689    0.0000 </r>
       <r>    8.4737    0.0000 </r>
       <r>    8.8338    0.0000 </r>
       <r>    8.8364    0.0000 </r>
      </set>
      <set comment="kpoint 43">
       <r>   -5.7973    1.0000 </r>
       <r>   -4.7661    1.0000 </r>
       <r>   -4.7502    1.0000 </r>
       <r>   -2.1440    1.0000 </r>
       <r>   -1.7524    1.0000 </r>
       <r>    1.1547    1.0000 </r>
       <r>    1.1640    1.0000 </r>
       <r>    1.9015    1.0000 </r>
       <r>    2.7437    1.0000 </r>
       <r>    3.1727    1.0000 </r>
       <r>    3.1802    1.0000 </r>
       <r>    3.9062    1.0000 </r>
       <r>    4.3564    1.0000 </r>
       <r>    4.3643    1.0000 </r>
       <r>    4.7000    1.0000 </r>
       <r>    5.0936    1.0000 </r>
       <r>    7.3773    0.0000 </r>
       <r>    7.8893    0.0000 </r>
       <r>    8.2648    0.0000 </r>
       <r>    8.2769    0.0000 </r>
       <r>    8.6354    0.0000 </r>
       <r>    9.2894    0.0000 </r>
       <r>    9.5487    0.0000 </r>
       <r>    9.5501    0.0000 </r>
      </set>
      <set comment="kpoint 44">
       <r>   -5.7970    1.0000 </r>
       <r>   -4.7656    1.0000 </r>
       <r>   -4.7497    1.0000 </r>
       <r>   -2.1304    1.0000 </r>
       <r>   -1.7672    1.0000 </r>
       <r>    1.1516    1.0000 </r>
       <r>    1.1600    1.0000 </r>
       <r>    1.8936    1.0000 </r>
       <r>    2.7525    1.0000 </r>
       <r>    3.1739    1.0000 </r>
       <r>    3.1813    1.0000 </r>
       <r>    3.8908    1.0000 </r>
       <r>    4.3577    1.0000 </r>
       <r>    4.3661    1.0000 </r>
       <r>    4.7017    1.0000 </r>
       <r>    5.1110    1.0000 </r>
       <r>    7.3886    0.0000 </r>
       <r>    7.8870    0.0000 </r>
       <r>    8.2715    0.0000 </r>
       <r>    8.2836    0.0000 </r>
       <r>    8.6245    0.0000 </r>
       <r>    9.2922    0.0000 </r>
       <r>    9.5506    0.0000 </r>
       <r>    9.5531    0.0000 </r>
      </set>
      <set comment="kpoint 45">
       <r>   -5.7313    1.0000 </r>
       <r>   -5.2075    1.0000 </r>
       <r>   -4.1937    1.0000 </r>
       <r>   -2.7818    1.0000 </r>
       <r>   -1.0990    1.0000 </r>
       <r>    0.4423    1.0000 </r>
       <r>    1.8837    1.0000 </r>
       <r>    2.0022    1.0000 </r>
       <r>    2.6869    1.0000 </r>
       <r>    2.8420    1.0000 </r>
       <r>    3.4066    1.0000 </r>
       <r>    3.6735    1.0000 </r>
       <r>    3.7278    1.0000 </r>
       <r>    4.8089    1.0000 </r>
       <r>    5.0279    1.0000 </r>
       <r>    5.1261    1.0000 </r>
       <r>    7.4405    0.0000 </r>
       <r>    7.9146    0.0000 </r>
       <r>    8.1435    0.0000 </r>
       <r>    8.5493    0.0000 </r>
       <r>    8.7325    0.0000 </r>
       <r>    8.9207    0.0000 </r>
       <r>    9.0268    0.0000 </r>
       <r>    9.5442    0.0000 </r>
      </set>
      <set comment="kpoint 46">
       <r>   -5.7309    1.0000 </r>
       <r>   -5.2074    1.0000 </r>
       <r>   -4.1924    1.0000 </r>
[...]
       <r>   -2.2952    1.0000 </r>
       <r>   -2.0270    1.0000 </r>
       <r>   -2.0228    1.0000 </r>
       <r>   -1.4737    1.0000 </r>
       <r>   -1.4666    1.0000 </r>
       <r>   -1.3172    1.0000 </r>
       <r>    1.6870    1.0000 </r>
       <r>    1.6884    1.0000 </r>
       <r>    2.3062    1.0000 </r>
       <r>    2.3100    1.0000 </r>
       <r>    2.8193    1.0000 </r>
       <r>    2.8214    1.0000 </r>
       <r>    2.9549    1.0000 </r>
       <r>    2.9570    1.0000 </r>
       <r>    6.3640    0.0000 </r>
       <r>    6.6684    0.0000 </r>
       <r>    6.6728    0.0000 </r>
       <r>    6.6936    0.0000 </r>
       <r>    9.5426    0.0000 </r>
       <r>    9.5505    0.0000 </r>
       <r>   10.1732    0.0000 </r>
       <r>   10.1763    0.0000 </r>
      </set>
      <set comment="kpoint 136">
       <r>   -2.6783    1.0000 </r>
       <r>   -2.4410    1.0000 </r>
       <r>   -2.1941    1.0000 </r>
       <r>   -2.0819    1.0000 </r>
       <r>   -1.9297    1.0000 </r>
       <r>   -1.6226    1.0000 </r>
       <r>   -1.3660    1.0000 </r>
       <r>   -1.3142    1.0000 </r>
       <r>    1.7035    1.0000 </r>
       <r>    1.9116    1.0000 </r>
       <r>    2.3128    1.0000 </r>
       <r>    2.3878    1.0000 </r>
       <r>    2.5034    1.0000 </r>
       <r>    2.7440    1.0000 </r>
       <r>    2.8064    1.0000 </r>
       <r>    2.9882    1.0000 </r>
       <r>    6.5987    0.0000 </r>
       <r>    6.7356    0.0000 </r>
       <r>    7.0285    0.0000 </r>
       <r>    7.3592    0.0000 </r>
       <r>    8.2832    0.0000 </r>
       <r>    8.8610    0.0000 </r>
       <r>    9.0636    0.0000 </r>
       <r>    9.6698    0.0000 </r>
      </set>
      <set comment="kpoint 137">
       <r>   -2.6778    1.0000 </r>
       <r>   -2.4427    1.0000 </r>
       <r>   -2.1911    1.0000 </r>
       <r>   -2.0855    1.0000 </r>
       <r>   -1.9260    1.0000 </r>
       <r>   -1.6261    1.0000 </r>
       <r>   -1.3635    1.0000 </r>
       <r>   -1.3150    1.0000 </r>
       <r>    1.7018    1.0000 </r>
       <r>    1.9123    1.0000 </r>
       <r>    2.3110    1.0000 </r>
       <r>    2.3899    1.0000 </r>
       <r>    2.5056    1.0000 </r>
       <r>    2.7439    1.0000 </r>
       <r>    2.8070    1.0000 </r>
       <r>    2.9861    1.0000 </r>
       <r>    6.5959    0.0000 </r>
       <r>    6.7351    0.0000 </r>
       <r>    7.0287    0.0000 </r>
       <r>    7.3618    0.0000 </r>
       <r>    8.2860    0.0000 </r>
       <r>    8.8620    0.0000 </r>
       <r>    9.0627    0.0000 </r>
       <r>    9.6669    0.0000 </r>
      </set>
      <set comment="kpoint 138">
       <r>   -2.5840    1.0000 </r>
       <r>   -2.5757    1.0000 </r>
       <r>   -2.1318    1.0000 </r>
       <r>   -2.1243    1.0000 </r>
       <r>   -1.7909    1.0000 </r>
       <r>   -1.7865    1.0000 </r>
       <r>   -1.3237    1.0000 </r>
       <r>   -1.3168    1.0000 </r>
       <r>    1.9592    1.0000 </r>
       <r>    1.9614    1.0000 </r>
       <r>    2.3088    1.0000 </r>
       <r>    2.3102    1.0000 </r>
       <r>    2.5154    1.0000 </r>
       <r>    2.5165    1.0000 </r>
       <r>    2.7997    1.0000 </r>
       <r>    2.8046    1.0000 </r>
       <r>    7.2125    0.0000 </r>
       <r>    7.2158    0.0000 </r>
       <r>    7.6511    0.0000 </r>
       <r>    7.6518    0.0000 </r>
       <r>    7.8944    0.0000 </r>
       <r>    7.8953    0.0000 </r>
       <r>    8.4115    0.0000 </r>
       <r>    8.4145    0.0000 </r>
      </set>
     </set>
    </set>
   </array>
  </eigenvalues>
  <separator name="orbital magnetization" >
   <v name="MAGDIPOLOUT">      0.00000000      0.00000000      0.00000000</v>
  </separator>
  <dos>
   <i name="efermi">      5.83661321 </i>
   <total>
    <array>
     <dimension dim="1">gridpoints</dimension>
     <dimension dim="2">spin</dimension>
     <field>energy</field>
     <field>total</field>
     <field>integrated</field>
     <set>
      <set comment="spin 1">
       <r>    -6.9957     0.0000     0.0000 </r>
       <r>    -6.9340     0.0000     0.0000 </r>
       <r>    -6.8724     0.0000     0.0000 </r>
       <r>    -6.8107     0.0000     0.0000 </r>
       <r>    -6.7490     0.0000     0.0000 </r>
       <r>    -6.6874     0.0000     0.0000 </r>
       <r>    -6.6257     0.0000     0.0000 </r>
       <r>    -6.5641     0.0000     0.0000 </r>
       <r>    -6.5024     0.0000     0.0000 </r>
       <r>    -6.4408     0.0000     0.0000 </r>
       <r>    -6.3791     0.0000     0.0000 </r>
       <r>    -6.3174     0.0000     0.0000 </r>
       <r>    -6.2558     0.0000     0.0000 </r>
       <r>    -6.1941     0.0000     0.0000 </r>
       <r>    -6.1325     0.0670     0.0041 </r>
       <r>    -6.0708     0.3896     0.0282 </r>
       <r>    -6.0092     0.6141     0.0660 </r>
       <r>    -5.9475     0.3687     0.0887 </r>
       <r>    -5.8858     0.4268     0.1151 </r>
       <r>    -5.8242     0.4044     0.1400 </r>
       <r>    -5.7625     1.5549     0.2359 </r>
       <r>    -5.7009     1.6032     0.3347 </r>
       <r>    -5.6392     0.0000     0.3347 </r>
       <r>    -5.5776     0.7432     0.3805 </r>
       <r>    -5.5159     1.7339     0.4875 </r>
       <r>    -5.4543     1.1852     0.5606 </r>
       <r>    -5.3926     1.3653     0.6447 </r>
       <r>    -5.3309     1.1204     0.7138 </r>
       <r>    -5.2693     1.0063     0.7759 </r>
       <r>    -5.2076     1.5954     0.8742 </r>
       <r>    -5.1460     2.6419     1.0371 </r>
       <r>    -5.0843     0.0479     1.0401 </r>
       <r>    -5.0227     0.4868     1.0702 </r>
       <r>    -4.9610     3.0761     1.2598 </r>
       <r>    -4.8993     2.0383     1.3855 </r>
       <r>    -4.8377     1.5095     1.4786 </r>
       <r>    -4.7760     1.5939     1.5769 </r>
       <r>    -4.7144     2.6363     1.7394 </r>
       <r>    -4.6527     2.1751     1.8735 </r>
       <r>    -4.5911     0.5106     1.9050 </r>
       <r>    -4.5294     1.3135     1.9860 </r>
       <r>    -4.4677     1.8937     2.1028 </r>
       <r>    -4.4061     2.7964     2.2752 </r>
       <r>    -4.3444     2.6113     2.4363 </r>
       <r>    -4.2828     2.0406     2.5622 </r>
       <r>    -4.2211     3.1520     2.7565 </r>
       <r>    -4.1595     3.9594     3.0006 </r>
       <r>    -4.0978     2.0714     3.1284 </r>
       <r>    -4.0362     0.9340     3.1860 </r>
       <r>    -3.9745     3.0867     3.3763 </r>
       <r>    -3.9128     2.6229     3.5381 </r>
       <r>    -3.8512     2.5608     3.6960 </r>
       <r>    -3.7895     2.6443     3.8590 </r>
       <r>    -3.7279     4.9639     4.1651 </r>
       <r>    -3.6662     5.6946     4.5162 </r>
       <r>    -3.6046     2.1171     4.6468 </r>
       <r>    -3.5429     2.2391     4.7848 </r>
       <r>    -3.4812     3.6916     5.0125 </r>
       <r>    -3.4196     4.7725     5.3068 </r>
       <r>    -3.3579     1.7759     5.4163 </r>
       <r>    -3.2963     2.0283     5.5413 </r>
       <r>    -3.2346     2.1392     5.6733 </r>
       <r>    -3.1730     2.6364     5.8359 </r>
       <r>    -3.1113     6.4087     6.2311 </r>
       <r>    -3.0496     1.5562     6.3272 </r>
       <r>    -2.9880     0.6323     6.3662 </r>
       <r>    -2.9263     1.5167     6.4597 </r>
       <r>    -2.8647     2.1119     6.5900 </r>
       <r>    -2.8030     3.6694     6.8162 </r>
       <r>    -2.7414     2.7798     6.9876 </r>
       <r>    -2.6797     0.5529     7.0217 </r>
       <r>    -2.6180     4.1958     7.2804 </r>
       <r>    -2.5564     2.5589     7.4382 </r>
       <r>    -2.4947     1.2021     7.5124 </r>
       <r>    -2.4331     1.6163     7.6120 </r>
       <r>    -2.3714     0.5945     7.6488 </r>
       <r>    -2.3098     0.0853     7.6540 </r>
       <r>    -2.2481     0.8824     7.7084 </r>
       <r>    -2.1865     1.3379     7.7909 </r>
       <r>    -2.1248     0.9352     7.8486 </r>
       <r>    -2.0631     0.9760     7.9088 </r>
       <r>    -2.0015     0.8554     7.9617 </r>
       <r>    -1.9398     1.1732     8.0340 </r>
       <r>    -1.8782     1.4233     8.1218 </r>
       <r>    -1.8165     0.2364     8.1364 </r>
       <r>    -1.7549     0.8915     8.1913 </r>
       <r>    -1.6932     0.5439     8.2249 </r>
       <r>    -1.6315     0.5275     8.2574 </r>
       <r>    -1.5699     0.4497     8.2851 </r>
       <r>    -1.5082     0.4952     8.3157 </r>
       <r>    -1.4466     0.5761     8.3512 </r>
       <r>    -1.3849     1.0169     8.4139 </r>
       <r>    -1.3233     2.3470     8.5586 </r>
       <r>    -1.2616     4.6783     8.8471 </r>
       <r>    -1.1999     2.1317     8.9785 </r>
       <r>    -1.1383     1.0317     9.0422 </r>
       <r>    -1.0766     6.6086     9.4497 </r>
       <r>    -1.0150     5.8136     9.8082 </r>
       <r>    -0.9533     4.9176    10.1115 </r>
       <r>    -0.8917     4.8800    10.4123 </r>
       <r>    -0.8300     4.3731    10.6820 </r>
       <r>    -0.7684     4.4271    10.9549 </r>
       <r>    -0.7067     4.9170    11.2581 </r>
       <r>    -0.6450     3.6310    11.4820 </r>
       <r>    -0.5834     1.2073    11.5565 </r>
       <r>    -0.5217     1.9072    11.6741 </r>
       <r>    -0.4601     1.8653    11.7891 </r>
       <r>    -0.3984     3.3709    11.9970 </r>
       <r>    -0.3368     1.1989    12.0709 </r>
       <r>    -0.2751     3.4062    12.2810 </r>
       <r>    -0.2134     4.9285    12.5848 </r>
       <r>    -0.1518     0.5508    12.6188 </r>
       <r>    -0.0901     0.9205    12.6756 </r>
       <r>    -0.0285     2.9350    12.8565 </r>
       <r>     0.0332     2.8680    13.0333 </r>
       <r>     0.0948     1.4627    13.1235 </r>
       <r>     0.1565     0.3811    13.1470 </r>
       <r>     0.2182     0.3434    13.1682 </r>
       <r>     0.2798     2.6377    13.3308 </r>
       <r>     0.3415     2.2278    13.4683 </r>
       <r>     0.4031     1.1839    13.5413 </r>
       <r>     0.4648     2.3033    13.6833 </r>
       <r>     0.5264     0.9016    13.7390 </r>
       <r>     0.5881     0.8447    13.7911 </r>
       <r>     0.6498     2.3777    13.9377 </r>
       <r>     0.7114     0.5733    13.9731 </r>
       <r>     0.7731     0.2350    13.9876 </r>
       <r>     0.8347     1.0686    14.0535 </r>
       <r>     0.8964     2.3155    14.1963 </r>
       <r>     0.9580     1.7807    14.3062 </r>
       <r>     1.0197     0.7310    14.3512 </r>
       <r>     1.0813     0.0000    14.3512 </r>
       <r>     1.1430     0.1828    14.3625 </r>
       <r>     1.2047     3.1636    14.5576 </r>
       <r>     1.2663     1.1054    14.6257 </r>
       <r>     1.3280     0.5074    14.6570 </r>
       <r>     1.3896     0.1731    14.6677 </r>
       <r>     1.4513     1.4156    14.7550 </r>
       <r>     1.5129     2.1695    14.8887 </r>
       <r>     1.5746     3.1247    15.0814 </r>
       <r>     1.6363     5.1722    15.4003 </r>
       <r>     1.6979     7.4899    15.8621 </r>
       <r>     1.7596     3.0871    16.0526 </r>
       <r>     1.8212     3.8855    16.2922 </r>
       <r>     1.8829     2.7780    16.4635 </r>
       <r>     1.9445     6.4666    16.8623 </r>
       <r>     2.0062     5.8843    17.2251 </r>
       <r>     2.0679     2.4118    17.3739 </r>
       <r>     2.1295     2.6918    17.5398 </r>
       <r>     2.1912     6.2486    17.9251 </r>
       <r>     2.2528     1.2470    18.0021 </r>
       <r>     2.3145     7.4448    18.4611 </r>
       <r>     2.3761     4.2144    18.7211 </r>
       <r>     2.4378     4.1212    18.9752 </r>
       <r>     2.4994     2.3481    19.1200 </r>
       <r>     2.5611     4.9650    19.4262 </r>
       <r>     2.6228     3.7853    19.6596 </r>
       <r>     2.6844     3.8995    19.9001 </r>
       <r>     2.7461     7.7247    20.3764 </r>
       <r>     2.8077     5.3236    20.7048 </r>
       <r>     2.8694     4.1717    20.9620 </r>
       <r>     2.9310     4.9532    21.2675 </r>
       <r>     2.9927     6.6300    21.6763 </r>
       <r>     3.0544     5.2124    21.9978 </r>
       <r>     3.1160     9.4998    22.5836 </r>
       <r>     3.1777     6.2224    22.9673 </r>
       <r>     3.2393     5.3628    23.2980 </r>
       <r>     3.3010     1.2359    23.3743 </r>
       <r>     3.3626     3.8251    23.6101 </r>
       <r>     3.4243     7.0235    24.0432 </r>
       <r>     3.4860     9.6493    24.6382 </r>
       <r>     3.5476     7.5877    25.1061 </r>
       <r>     3.6093     3.7987    25.3404 </r>
       <r>     3.6709     4.4272    25.6134 </r>
       <r>     3.7326     4.4175    25.8858 </r>
       <r>     3.7942     3.4764    26.1002 </r>
       <r>     3.8559     4.5138    26.3785 </r>
       <r>     3.9176     8.8909    26.9269 </r>
       <r>     3.9792     5.3637    27.2577 </r>
       <r>     4.0409     7.1877    27.7009 </r>
       <r>     4.1025     3.1653    27.8963 </r>
       <r>     4.1642     1.4778    27.9874 </r>
       <r>     4.2258     4.2088    28.2469 </r>
       <r>     4.2875     5.2093    28.5681 </r>
       <r>     4.3491     7.6254    29.0384 </r>
       <r>     4.4108     5.2235    29.3604 </r>
       <r>     4.4725     3.7794    29.5935 </r>
       <r>     4.5341     3.9544    29.8374 </r>
       <r>     4.5958     4.2533    30.0996 </r>
       <r>     4.6574     3.5207    30.3167 </r>
       <r>     4.7191     2.8489    30.4924 </r>
       <r>     4.7807     2.8900    30.6706 </r>
       <r>     4.8424     1.6563    30.7727 </r>
       <r>     4.9041     2.5360    30.9291 </r>
       <r>     4.9657     2.3707    31.0754 </r>
       <r>     5.0274     2.9796    31.2591 </r>
       <r>     5.0890     1.6797    31.3627 </r>
       <r>     5.1507     2.7774    31.5340 </r>
       <r>     5.2123     1.0502    31.5988 </r>
       <r>     5.2740     0.6116    31.6365 </r>
       <r>     5.3357     0.5796    31.6723 </r>
       <r>     5.3973     1.2235    31.7477 </r>
       <r>     5.4590     0.9911    31.8088 </r>
       <r>     5.5206     1.2902    31.8884 </r>
       <r>     5.5823     0.3432    31.9095 </r>
       <r>     5.6439     0.9980    31.9711 </r>
       <r>     5.7056     0.0375    31.9734 </r>
       <r>     5.7672     0.4014    31.9981 </r>
       <r>     5.8289     0.0302    32.0000 </r>
       <r>     5.8906     0.0000    32.0000 </r>
       <r>     5.9522     0.0000    32.0000 </r>
       <r>     6.0139     0.0000    32.0000 </r>
       <r>     6.0755     0.0000    32.0000 </r>
       <r>     6.1372     0.0000    32.0000 </r>
       <r>     6.1988     0.0000    32.0000 </r>
       <r>     6.2605     0.0000    32.0000 </r>
       <r>     6.3222     0.0001    32.0000 </r>
       <r>     6.3838     0.4808    32.0297 </r>
       <r>     6.4455     0.3227    32.0496 </r>
       <r>     6.5071     0.1340    32.0578 </r>
       <r>     6.5688     1.0157    32.1205 </r>
       <r>     6.6304     0.9933    32.1818 </r>
       <r>     6.6921     1.3904    32.2675 </r>
       <r>     6.7538     1.8812    32.3836 </r>
       <r>     6.8154     2.7230    32.5516 </r>
       <r>     6.8771     0.3054    32.5705 </r>
       <r>     6.9387     0.6636    32.6114 </r>
       <r>     7.0004     1.1354    32.6814 </r>
       <r>     7.0620     3.7975    32.9156 </r>
       <r>     7.1237     1.3645    32.9997 </r>
       <r>     7.1854     3.1273    33.1926 </r>
       <r>     7.2470     2.6343    33.3550 </r>
       <r>     7.3087     2.1750    33.4891 </r>
       <r>     7.3703     4.1974    33.7479 </r>
       <r>     7.4320     3.3232    33.9529 </r>
       <r>     7.4936     2.5247    34.1086 </r>
       <r>     7.5553     5.1524    34.4263 </r>
       <r>     7.6169     0.7255    34.4711 </r>
       <r>     7.6786     5.6238    34.8179 </r>
       <r>     7.7403     5.7573    35.1729 </r>
       <r>     7.8019     5.9083    35.5374 </r>
       <r>     7.8636     5.5466    35.8795 </r>
       <r>     7.9252     4.4136    36.1518 </r>
       <r>     7.9869     3.1264    36.3445 </r>
       <r>     8.0485     8.9223    36.8946 </r>
       <r>     8.1102     4.3684    37.1644 </r>
       <r>     8.1719     9.9217    37.7762 </r>
       <r>     8.2335     2.7970    37.9486 </r>
       <r>     8.2952     5.4075    38.2820 </r>
       <r>     8.3568     7.5318    38.7464 </r>
       <r>     8.4185     4.0490    38.9962 </r>
       <r>     8.4801     4.6135    39.2807 </r>
       <r>     8.5418     4.3527    39.5491 </r>
       <r>     8.6035     5.2973    39.8757 </r>
       <r>     8.6651     5.8242    40.2348 </r>
       <r>     8.7268     3.7933    40.4687 </r>
       <r>     8.7884     3.4075    40.6788 </r>
       <r>     8.8501     3.6244    40.9024 </r>
       <r>     8.9117     4.5482    41.1829 </r>
       <r>     8.9734     5.5173    41.5231 </r>
       <r>     9.0350    10.8695    42.1934 </r>
       <r>     9.0967    11.6952    42.9147 </r>
       <r>     9.1584     8.2546    43.4238 </r>
       <r>     9.2200     2.8795    43.6014 </r>
       <r>     9.2817     5.9707    43.9695 </r>
       <r>     9.3433     8.1274    44.4708 </r>
       <r>     9.4050     6.8167    44.8911 </r>
       <r>     9.4666     6.5100    45.2926 </r>
       <r>     9.5283     2.8339    45.4674 </r>
       <r>     9.5900     7.8448    45.9511 </r>
       <r>     9.6516     2.1363    46.0829 </r>
       <r>     9.7133     2.9815    46.2668 </r>
       <r>     9.7749     3.8413    46.5037 </r>
       <r>     9.8366     1.2054    46.5781 </r>
       <r>     9.8982     2.5474    46.7353 </r>
       <r>     9.9599     5.5209    47.0757 </r>
       <r>    10.0216     1.5845    47.1735 </r>
       <r>    10.0832     1.7339    47.2806 </r>
       <r>    10.1449     2.0171    47.4049 </r>
       <r>    10.2065     0.5361    47.4380 </r>
       <r>    10.2682     0.5847    47.4741 </r>
       <r>    10.3298     2.0930    47.6031 </r>
       <r>    10.3915     0.5372    47.6363 </r>
       <r>    10.4532     0.3836    47.6600 </r>
       <r>    10.5148     2.1605    47.7932 </r>
       <r>    10.5765     1.1954    47.8669 </r>
       <r>    10.6381     1.0903    47.9342 </r>
       <r>    10.6998     1.0671    48.0000 </r>
       <r>    10.7614     0.0000    48.0000 </r>
       <r>    10.8231     0.0000    48.0000 </r>
       <r>    10.8847     0.0000    48.0000 </r>
       <r>    10.9464     0.0000    48.0000 </r>
       <r>    11.0081     0.0000    48.0000 </r>
       <r>    11.0697     0.0000    48.0000 </r>
       <r>    11.1314     0.0000    48.0000 </r>
       <r>    11.1930     0.0000    48.0000 </r>
       <r>    11.2547     0.0000    48.0000 </r>
       <r>    11.3163     0.0000    48.0000 </r>
       <r>    11.3780     0.0000    48.0000 </r>
       <r>    11.4397     0.0000    48.0000 </r>
       <r>    11.5013     0.0000    48.0000 </r>
      </set>
     </set>
    </array>
   </total>
  </dos>
 </calculation>
 <structure name="finalpos" >
  <crystal>
   <varray name="basis" >
    <v>       0.00000000       0.00000000     -10.88740475 </v>
    <v>      -2.72185119       2.72185119      -0.00000000 </v>
    <v>       2.72185119       2.72185119       0.00000000 </v>
   </varray>
   <i name="volume">    161.31810740 </i>
   <varray name="rec_basis" >
    <v>       0.00000000      -0.00000000      -0.09184925 </v>
    <v>      -0.18369851       0.18369851       0.00000000 </v>
    <v>       0.18369851       0.18369851       0.00000000 </v>
   </varray>
  </crystal>
  <varray name="positions" >
   <v>       0.99913404       0.99913404       0.00000000 </v>
   <v>       0.75000000       0.50000000       0.50000000 </v>
   <v>       0.50000000       0.00000000       0.00000000 </v>
   <v>       0.25000000       0.50000000       0.50000000 </v>
   <v>       0.87500000       0.00000000       0.50000000 </v>
   <v>       0.62500000       0.50000000       0.00000000 </v>
   <v>       0.37500000       0.00000000       0.50000000 </v>
   <v>       0.12500000       0.50000000       0.00000000 </v>
  </varray>
 </structure>
</modeling>
