phonopy:
  version: "2.33.3"
  frequency_unit_conversion_factor: 15.633302
  symmetry_tolerance: 1.00000e-05
  configuration:
    force_sets: "READ"
    force_constants: "WRITE"
    fc_format: "HDF5"
    fc_symmetry: ".FALSE."
    include_fc: ".TRUE."
    primitive_axes: "1 0 0 0 1 0 0 0 1"
    dim: "1 -2 0 1 2 0 -1 0 1"

physical_unit:
  atomic_mass: "AMU"
  length: "angstrom"
  force: "eV/angstrom"
  force_constants: "eV/angstrom^2"

space_group:
  type: "Fd-3m"
  number: 227
  Hall_symbol: "F 4d 2 3 -1d"

primitive_matrix:
- [  1.000000000000000,  0.000000000000000,  0.000000000000000 ]
- [  0.000000000000000,  1.000000000000000,  0.000000000000000 ]
- [  0.000000000000000,  0.000000000000000,  1.000000000000000 ]

supercell_matrix:
- [   1,  -2,   0 ]
- [   1,   2,   0 ]
- [  -1,   0,   1 ]

primitive_cell:
  lattice:
  - [     0.000000000000000,     2.721851186499999,     2.721851186499999 ] # a
  - [     2.721851186499999,     0.000000000000000,     2.721851186499999 ] # b
  - [     2.721851186500000,     2.721851186500000,     0.000000000000000 ] # c
  points:
  - symbol: Si # 1
    coordinates: [  0.000000000000000,  0.000000000000000,  1.000000000000000 ]
    mass: 28.085500
  - symbol: Si # 2
    coordinates: [  0.250000000000000,  0.250000000000000,  0.250000000000000 ]
    mass: 28.085500
  reciprocal_lattice: # without 2pi
  - [    -0.183698507280607,     0.183698507280607,     0.183698507280607 ] # a*
  - [     0.183698507280607,    -0.183698507280607,     0.183698507280607 ] # b*
  - [     0.183698507280607,     0.183698507280607,    -0.183698507280607 ] # c*

unit_cell:
  lattice:
  - [     0.000000000000000,     2.721851186500000,     2.721851186500000 ] # a
  - [     2.721851186500000,     0.000000000000000,     2.721851186500000 ] # b
  - [     2.721851186500000,     2.721851186500000,     0.000000000000000 ] # c
  points:
  - symbol: Si # 1
    coordinates: [  0.000000000000000,  0.000000000000000,  1.000000000000000 ]
    mass: 28.085500
    reduced_to: 1
  - symbol: Si # 2
    coordinates: [  0.250000000000000,  0.250000000000000,  0.250000000000000 ]
    mass: 28.085500
    reduced_to: 2

supercell:
  lattice:
  - [    -0.000000000000000,    -0.000000000000000,     5.443702372999999 ] # a
  - [     5.443702372999998,    -5.443702372999999,     0.000000000000000 ] # b
  - [     2.721851186500000,     2.721851186500000,     0.000000000000000 ] # c
  points:
  - symbol: Si # 1
    coordinates: [  0.000000000000000,  0.000000000000000,  1.000000000000000 ]
    mass: 28.085500
    reduced_to: 1
  - symbol: Si # 2
    coordinates: [  0.500000000000000,  0.750000000000000,  0.500000000000000 ]
    mass: 28.085500
    reduced_to: 1
  - symbol: Si # 3
    coordinates: [  0.000000000000000,  0.500000000000000,  1.000000000000000 ]
    mass: 28.085500
    reduced_to: 1
  - symbol: Si # 4
    coordinates: [  0.500000000000000,  0.250000000000000,  0.500000000000000 ]
    mass: 28.085500
    reduced_to: 1
  - symbol: Si # 5
    coordinates: [  0.250000000000000,  1.000000000000000,  0.500000000000000 ]
    mass: 28.085500
    reduced_to: 5
  - symbol: Si # 6
    coordinates: [  0.750000000000000,  0.750000000000000,  1.000000000000000 ]
    mass: 28.085500
    reduced_to: 5
  - symbol: Si # 7
    coordinates: [  0.250000000000000,  0.500000000000000,  0.500000000000000 ]
    mass: 28.085500
    reduced_to: 5
  - symbol: Si # 8
    coordinates: [  0.750000000000000,  0.250000000000000,  1.000000000000000 ]
    mass: 28.085500
    reduced_to: 5

force_constants:
  format: "compact"
  shape: [ 2, 8 ]
  elements:
  - # (1, 1)
    - [    12.697731770669606,    -0.258731165077326,    -0.000000000000002 ]
    - [    -0.258731165077330,    12.697731770669614,    -0.000000000000002 ]
    - [    -0.000000000000000,    -0.000000000000001,    14.438894028878632 ]
  - # (1, 2)
    - [     0.406398246235759,    -0.000180534968914,     0.171978733882639 ]
    - [    -0.000180534968914,     0.406398246235759,    -0.171978733882638 ]
    - [    -0.171912319464022,     0.171912319464022,    -0.916180356896772 ]
  - # (1, 3)
    - [    -0.123340227951204,     0.258220428843978,    -0.000000000000000 ]
    - [     0.258220428843978,    -0.123340227951204,    -0.000000000000000 ]
    - [    -0.000000000000000,    -0.000000000000000,     0.783419804913606 ]
  - # (1, 4)
    - [     0.406398246235759,    -0.000180534968914,    -0.171978733882638 ]
    - [    -0.000180534968914,     0.406398246235759,     0.171978733882639 ]
    - [     0.171912319464022,    -0.171912319464022,    -0.916180356896772 ]
  - # (1, 5)
    - [    -6.347754730017703,    -4.611837573904108,     0.000000000000001 ]
    - [    -4.611837573904110,    -6.347754730017705,     0.000000000000000 ]
    - [     0.000000000000000,     0.000000000000000,    -6.805275942689710 ]
  - # (1, 6)
    - [    -3.347401052611867,     2.415352326737787,    -2.182689990234925 ]
    - [     2.415352326737790,    -3.347401052611872,     2.182689990234929 ]
    - [    -2.183126127174053,     2.183126127174054,    -3.348040174464223 ]
  - # (1, 7)
    - [    -0.344630732241307,    -0.217995741107462,    -0.000000000000000 ]
    - [    -0.217995741107462,    -0.344630732241307,    -0.000000000000000 ]
    - [    -0.000000000000000,    -0.000000000000000,     0.111402236205114 ]
  - # (1, 8)
    - [    -3.347401052611868,     2.415352326737787,     2.182689990234926 ]
    - [     2.415352326737790,    -3.347401052611872,    -2.182689990234927 ]
    - [     2.183126127174053,    -2.183126127174053,    -3.348040174464222 ]
  - # (2, 1)
    - [    -6.347754730017707,    -4.611837573904110,    -0.000000000000002 ]
    - [    -4.611837573904107,    -6.347754730017702,    -0.000000000000002 ]
    - [    -0.000000000000001,    -0.000000000000001,    -6.805275942689710 ]
  - # (2, 2)
    - [    -3.347401052611872,     2.415352326737790,     2.182689990234927 ]
    - [     2.415352326737787,    -3.347401052611866,    -2.182689990234925 ]
    - [     2.183126127174053,    -2.183126127174052,    -3.348040174464222 ]
  - # (2, 3)
    - [    -0.344630732241307,    -0.217995741107462,    -0.000000000000000 ]
    - [    -0.217995741107462,    -0.344630732241307,    -0.000000000000000 ]
    - [    -0.000000000000000,    -0.000000000000000,     0.111402236205114 ]
  - # (2, 4)
    - [    -3.347401052611870,     2.415352326737790,    -2.182689990234928 ]
    - [     2.415352326737787,    -3.347401052611867,     2.182689990234925 ]
    - [    -2.183126127174053,     2.183126127174053,    -3.348040174464223 ]
  - # (2, 5)
    - [    12.697731770669614,    -0.258731165077328,     0.000000000000003 ]
    - [    -0.258731165077325,    12.697731770669602,     0.000000000000003 ]
    - [     0.000000000000001,     0.000000000000001,    14.438894028878632 ]
  - # (2, 6)
    - [     0.406398246235759,    -0.000180534968914,    -0.171978733882639 ]
    - [    -0.000180534968914,     0.406398246235759,     0.171978733882638 ]
    - [     0.171912319464022,    -0.171912319464022,    -0.916180356896772 ]
  - # (2, 7)
    - [    -0.123340227951204,     0.258220428843978,     0.000000000000000 ]
    - [     0.258220428843978,    -0.123340227951204,     0.000000000000000 ]
    - [    -0.000000000000000,     0.000000000000000,     0.783419804913606 ]
  - # (2, 8)
    - [     0.406398246235759,    -0.000180534968914,     0.171978733882639 ]
    - [    -0.000180534968914,     0.406398246235759,    -0.171978733882638 ]
    - [    -0.171912319464022,     0.171912319464022,    -0.916180356896772 ]