phonopy:
  version: "2.33.3"
  frequency_unit_conversion_factor: 15.633302
  symmetry_tolerance: 1.00000e-05
  configuration:
    force_sets: "READ"
    force_constants: "WRITE"
    fc_format: "HDF5"
    fc_symmetry: ".FALSE."
    include_fc: ".TRUE."
    primitive_axes: "1 0 0 0 1 0 0 0 1"
    dim: "2 -1 0 0 2 0 -1 -1 1"

physical_unit:
  atomic_mass: "AMU"
  length: "angstrom"
  force: "eV/angstrom"
  force_constants: "eV/angstrom^2"

space_group:
  type: "Fd-3m"
  number: 227
  Hall_symbol: "F 4d 2 3 -1d"

primitive_matrix:
- [  1.000000000000000,  0.000000000000000,  0.000000000000000 ]
- [  0.000000000000000,  1.000000000000000,  0.000000000000000 ]
- [  0.000000000000000,  0.000000000000000,  1.000000000000000 ]

supercell_matrix:
- [   2,  -1,   0 ]
- [   0,   2,   0 ]
- [  -1,  -1,   1 ]

primitive_cell:
  lattice:
  - [     0.000000000000000,     2.721851186499999,     2.721851186499999 ] # a
  - [     2.721851186500000,     0.000000000000000,     2.721851186500000 ] # b
  - [     2.721851186500000,     2.721851186499999,     0.000000000000000 ] # c
  points:
  - symbol: Si # 1
    coordinates: [  0.000000000000000,  0.000000000000000,  1.000000000000000 ]
    mass: 28.085500
  - symbol: Si # 2
    coordinates: [  0.250000000000000,  0.250000000000000,  0.250000000000000 ]
    mass: 28.085500
  reciprocal_lattice: # without 2pi
  - [    -0.183698507280607,     0.183698507280607,     0.183698507280607 ] # a*
  - [     0.183698507280607,    -0.183698507280607,     0.183698507280607 ] # b*
  - [     0.183698507280607,     0.183698507280607,    -0.183698507280607 ] # c*

unit_cell:
  lattice:
  - [     0.000000000000000,     2.721851186500000,     2.721851186500000 ] # a
  - [     2.721851186500000,     0.000000000000000,     2.721851186500000 ] # b
  - [     2.721851186500000,     2.721851186500000,     0.000000000000000 ] # c
  points:
  - symbol: Si # 1
    coordinates: [  0.000000000000000,  0.000000000000000,  1.000000000000000 ]
    mass: 28.085500
    reduced_to: 1
  - symbol: Si # 2
    coordinates: [  0.250000000000000,  0.250000000000000,  0.250000000000000 ]
    mass: 28.085500
    reduced_to: 2

supercell:
  lattice:
  - [    -2.721851186499999,     2.721851186499999,     5.443702372999999 ] # a
  - [     2.721851186499999,    -5.443702372999999,     2.721851186500000 ] # b
  - [     2.721851186500000,     2.721851186499999,     0.000000000000000 ] # c
  points:
  - symbol: Si # 1
    coordinates: [  0.000000000000000,  0.000000000000000,  1.000000000000000 ]
    mass: 28.085500
    reduced_to: 1
  - symbol: Si # 2
    coordinates: [  0.500000000000000,  0.000000000000000,  0.500000000000000 ]
    mass: 28.085500
    reduced_to: 1
  - symbol: Si # 3
    coordinates: [  0.250000000000000,  0.500000000000000,  0.750000000000000 ]
    mass: 28.085500
    reduced_to: 1
  - symbol: Si # 4
    coordinates: [  0.750000000000000,  0.500000000000000,  0.250000000000000 ]
    mass: 28.085500
    reduced_to: 1
  - symbol: Si # 5
    coordinates: [  0.187500000000000,  0.125000000000000,  0.562500000000000 ]
    mass: 28.085500
    reduced_to: 5
  - symbol: Si # 6
    coordinates: [  0.687500000000000,  0.125000000000000,  0.062500000000000 ]
    mass: 28.085500
    reduced_to: 5
  - symbol: Si # 7
    coordinates: [  0.437500000000000,  0.625000000000000,  0.312500000000000 ]
    mass: 28.085500
    reduced_to: 5
  - symbol: Si # 8
    coordinates: [  0.937500000000000,  0.625000000000000,  0.812500000000000 ]
    mass: 28.085500
    reduced_to: 5

force_constants:
  format: "compact"
  shape: [ 2, 8 ]
  elements:
  - # (1, 1)
    - [    12.948190472503322,    -0.407496195050877,     0.092637405675468 ]
    - [    -0.407496195050870,    12.948190472503322,    -0.092637405675464 ]
    - [     0.091750843481607,    -0.091750843481608,    14.208715499847148 ]
  - # (1, 2)
    - [     0.619669006360216,    -0.099650907181456,     0.411956562779254 ]
    - [    -0.099650907181456,     0.619669006360216,    -0.411956562779254 ]
    - [     0.412011676298465,    -0.412011676298465,    -0.638374228594766 ]
  - # (1, 3)
    - [    -0.089803346043028,     0.252658896336836,    -0.442923777573066 ]
    - [     0.252658896336836,    -0.089803346043028,     0.442923777573066 ]
    - [    -0.061234334800509,     0.061234334800509,    -0.090104174002059 ]
  - # (1, 4)
    - [    -0.089807785743188,     0.252671909251095,    -0.061266943632711 ]
    - [     0.252671909251095,    -0.089807785743187,     0.061266943632711 ]
    - [    -0.442889484716664,     0.442889484716664,    -0.090081516221940 ]
  - # (1, 5)
    - [    -6.678623036980743,    -4.535717860314877,    -0.029738642594717 ]
    - [    -4.535717860314883,    -6.678623036980744,     0.029738642594714 ]
    - [    -0.029868312457947,     0.029868312457949,    -7.130844924524389 ]
  - # (1, 6)
    - [    -3.612133160005299,     2.377331908474736,     2.189114647570350 ]
    - [     2.377331908474734,    -3.612133160005300,    -2.189114647570350 ]
    - [     2.189901546150240,    -2.189901546150241,    -3.160838557422512 ]
  - # (1, 7)
    - [    -0.044744063665876,     0.019411440746012,    -0.030010229769926 ]
    - [     0.019411440746012,    -0.044744063665876,     0.030010229769926 ]
    - [    -0.030009770490599,     0.030009770490599,    -0.088941278746675 ]
  - # (1, 8)
    - [    -3.052748698797842,     2.140790195366095,    -2.129768869361544 ]
    - [     2.140790195366093,    -3.052748698797840,     2.129768869361543 ]
    - [    -2.129662775837030,     2.129662775837030,    -3.009530054869264 ]
  - # (2, 1)
    - [    -6.678623036980743,    -4.535717860314882,    -0.029738642594713 ]
    - [    -4.535717860314876,    -6.678623036980744,     0.029738642594718 ]
    - [    -0.029868312457947,     0.029868312457949,    -7.130844924524387 ]
  - # (2, 2)
    - [    -3.612133160005299,     2.377331908474735,     2.189114647570349 ]
    - [     2.377331908474736,    -3.612133160005301,    -2.189114647570349 ]
    - [     2.189901546150240,    -2.189901546150240,    -3.160838557422510 ]
  - # (2, 3)
    - [    -3.052748698797838,     2.140790195366093,    -2.129768869361542 ]
    - [     2.140790195366096,    -3.052748698797845,     2.129768869361546 ]
    - [    -2.129662775837029,     2.129662775837031,    -3.009530054869264 ]
  - # (2, 4)
    - [    -0.044744063665876,     0.019411440746012,    -0.030010229769926 ]
    - [     0.019411440746012,    -0.044744063665876,     0.030010229769926 ]
    - [    -0.030009770490599,     0.030009770490599,    -0.088941278746675 ]
  - # (2, 5)
    - [    12.948190472503319,    -0.407496195050871,     0.092637405675463 ]
    - [    -0.407496195050878,    12.948190472503327,    -0.092637405675472 ]
    - [     0.091750843481607,    -0.091750843481610,    14.208715499847145 ]
  - # (2, 6)
    - [     0.619669006360216,    -0.099650907181456,     0.411956562779254 ]
    - [    -0.099650907181456,     0.619669006360217,    -0.411956562779254 ]
    - [     0.412011676298465,    -0.412011676298465,    -0.638374228594766 ]
  - # (2, 7)
    - [    -0.089807785743187,     0.252671909251095,    -0.061266943632711 ]
    - [     0.252671909251096,    -0.089807785743188,     0.061266943632711 ]
    - [    -0.442889484716664,     0.442889484716664,    -0.090081516221940 ]
  - # (2, 8)
    - [    -0.089803346043027,     0.252658896336836,    -0.442923777573065 ]
    - [     0.252658896336836,    -0.089803346043028,     0.442923777573066 ]
    - [    -0.061234334800509,     0.061234334800509,    -0.090104174002059 ]