8    
2    

1    
  0.0000000000000000   0.0044721359549996  -0.0089442719099992
  -0.0000000000   -0.0058533600    0.0142676400
   0.0000000000    0.0027280100    0.0038873900
  -0.0000000000   -0.0001825700   -0.0055545300
  -0.0000000000   -0.0001891600   -0.0055943800
   0.0005582600    0.0008454500   -0.0017153700
  -0.0005582600    0.0008454500   -0.0017153700
  -0.0006162100    0.0009031000   -0.0017876900
   0.0006162100    0.0009031000   -0.0017876900

5    
  0.0000000000000000   0.0044721359549996  -0.0089442719099992
   0.0006109800    0.0009102100   -0.0018036900
  -0.0006109800    0.0009102100   -0.0018036900
   0.0005520200    0.0008603600   -0.0017384800
  -0.0005520200    0.0008603600   -0.0017384800
  -0.0000000000   -0.0056426900    0.0136363400
   0.0000000000    0.0018395200    0.0020862500
   0.0000000000    0.0001278300   -0.0043097400
   0.0000000000    0.0001342100   -0.0043285100
